
     Program PWSCF v.6.5 starts on  9Oct2020 at 13:34: 1 

     This program is part of the open-source Quantum ESPRESSO suite
     for quantum simulation of materials; please cite
         "P. Giannozzi et al., J. Phys.:Condens. Matter 21 395502 (2009);
         "P. Giannozzi et al., J. Phys.:Condens. Matter 29 465901 (2017);
          URL http://www.quantum-espresso.org", 
     in publications or presentations arising from this work. More details at
     http://www.quantum-espresso.org/quote

     Parallel version (MPI), running on     1 processors

     MPI processes distributed on     1 nodes
     Reading input from pw.in
Warning: card  &IONS ignored
Warning: card  / ignored

     Current dimensions of program PWSCF are:
     Max number of different atomic species (ntypx) = 10
     Max number of k-points (npk) =  40000
     Max angular momentum in pseudopotentials (lmaxx) =  3

     Subspace diagonalization in iterative solution of the eigenvalue problem:
     a serial algorithm will be used

     Message from routine setup:
     using ibrav=0 with symmetry is DISCOURAGED, use correct ibrav instead

     G-vector sticks info
     --------------------
     sticks:   dense  smooth     PW     G-vecs:    dense   smooth      PW
     Sum         861     341     89               221431    56001    7059



     bravais-lattice index     =            0
     lattice parameter (alat)  =       5.5435  a.u.
     unit-cell volume          =    2000.1211 (a.u.)^3
     number of atoms/cell      =            2
     number of atomic types    =            1
     number of electrons       =        22.00
     number of Kohn-Sham states=           15
     kinetic-energy cutoff     =      35.0000  Ry
     charge density cutoff     =     350.0000  Ry
     convergence threshold     =      1.0E-06
     mixing beta               =       0.3000
     number of iterations used =            8  plain     mixing
     Exchange-correlation= PBE
                           (   1   4   3   4   0   0   0)


     Environ Module
     ==============

     Plese cite
         O. Andreussi, I. Dabo and N. Marzari, J. Chem. Phys. 136, 064102 (2012)         
     in publications or presentations arising from this work.

     compensation onset threshold      =               0.1000E+02 
     static permittivity               =                    80.00 
     epsilon calculation mode          =               electronic 

     Electrostatic Setup
     -------------------
     electrostatic problem to solve    = generalized              
     numerical solver adopted          = iterative                
     type of auxiliary density adopted = full                     
     type of core tool for poisson     = fft                      



     celldm(1)=   5.543526  celldm(2)=   0.000000  celldm(3)=   0.000000
     celldm(4)=   0.000000  celldm(5)=   0.000000  celldm(6)=   0.000000

     crystal axes: (cart. coord. in units of alat)
               a(1) = (   1.000000   0.000000   0.000000 )  
               a(2) = (   0.000000   1.000000   0.000000 )  
               a(3) = (   0.000000   0.000000  11.740809 )  

     reciprocal axes: (cart. coord. in units 2 pi/alat)
               b(1) = (  1.000000  0.000000  0.000000 )  
               b(2) = (  0.000000  1.000000  0.000000 )  
               b(3) = (  0.000000  0.000000  0.085173 )  


     PseudoPot. # 1 for Ag read from file:
     /Users/gabrielmedrano/Desktop/q-e/Environ/tests/../..//pseudo/Ag.pbe-n-rrkjus_psl.1.0.0.UPF
     MD5 check sum: d841cbfac2b0861aec33b46768a516bf
     Pseudo is Ultrasoft + core correction, Zval = 11.0
     Generated using "atomic" code by A. Dal Corso v.6.2.2
     Using radial grid of 1237 points,  6 beta functions with: 
                l(1) =   0
                l(2) =   0
                l(3) =   1
                l(4) =   1
                l(5) =   2
                l(6) =   2
     Q(r) pseudized with 0 coefficients 


     atomic species   valence    mass     pseudopotential
        Ag            11.00   107.86800     Ag( 1.00)

      8 Sym. Ops. (no inversion) found



   Cartesian axes

     site n.     atom                  positions (alat units)
         1           Ag  tau(   1) = (   0.5000000   0.5000000   3.4088881  )
         2           Ag  tau(   2) = (   0.0000000   0.0000000   4.1021437  )

     number of k points=     1  Marzari-Vanderbilt smearing, width (Ry)=  0.0100
                       cart. coord. in units 2pi/alat
        k(    1) = (   0.0000000   0.0000000   0.0000000), wk =   2.0000000

     Dense  grid:   221431 G-vectors     FFT dimensions: (  36,  36, 400)

     Smooth grid:    56001 G-vectors     FFT dimensions: (  24,  24, 250)

     Estimated max dynamical RAM per process >     776.84 MB
     Message from routine generate_erfc                                                                   :
     WARNING: wrong integral of erfc function

     Initial potential from superposition of free atoms

     starting charge   21.99920, renormalised to   22.00000

     negative rho (up, down):  1.367E-04 0.000E+00
     Starting wfcs are   18 randomized atomic wfcs

     total cpu time spent up to now is        2.6 secs

     Self-consistent Calculation

     iteration #  1     ecut=    35.00 Ry     beta= 0.30
     Davidson diagonalization with overlap
     ethr =  1.00E-02,  avg # of iterations =  8.0

     negative rho (up, down):  9.377E-05 0.000E+00

     add environment contribution to local potential
     polarization accuracy = 6.2E-12, # of iterations =  22

     total cpu time spent up to now is        7.0 secs

     total energy              =    -168.81920146 Ry
     Harris-Foulkes estimate   =    -168.92013544 Ry
     estimated scf accuracy    <       0.24833721 Ry
     electrostatic embedding   =       0.00000000 Ry
     electrolyte free energy   =       0.00000678 Ry
     correction to one-el term =      -0.00000000 Ry

     iteration #  2     ecut=    35.00 Ry     beta= 0.30
     Davidson diagonalization with overlap
     ethr =  1.13E-03,  avg # of iterations =  2.0

     negative rho (up, down):  7.588E-05 0.000E+00

     add environment contribution to local potential
     polarization accuracy = 8.4E-12, # of iterations =  21

     total cpu time spent up to now is       11.3 secs

     total energy              =    -168.84395795 Ry
     Harris-Foulkes estimate   =    -171.01385502 Ry
     estimated scf accuracy    <       0.02862648 Ry
     electrostatic embedding   =      -0.00073877 Ry
     electrolyte free energy   =       0.00000418 Ry
     correction to one-el term =       2.16379303 Ry

     iteration #  3     ecut=    35.00 Ry     beta= 0.30
     Davidson diagonalization with overlap
     ethr =  1.30E-04,  avg # of iterations = 10.0

     negative rho (up, down):  6.957E-05 0.000E+00

     add environment contribution to local potential
     polarization accuracy = 8.4E-12, # of iterations =  23

     total cpu time spent up to now is       15.8 secs

     total energy              =    -168.83195780 Ry
     Harris-Foulkes estimate   =    -170.91058064 Ry
     estimated scf accuracy    <       0.03414744 Ry
     electrostatic embedding   =      -0.00092447 Ry
     electrolyte free energy   =       0.00000398 Ry
     correction to one-el term =       2.06391737 Ry

     iteration #  4     ecut=    35.00 Ry     beta= 0.30
     Davidson diagonalization with overlap
     ethr =  1.30E-04,  avg # of iterations =  3.0

     negative rho (up, down):  5.386E-05 0.000E+00

     add environment contribution to local potential
     polarization accuracy = 6.4E-12, # of iterations =  28

     total cpu time spent up to now is       20.7 secs

     total energy              =    -168.85011091 Ry
     Harris-Foulkes estimate   =    -171.02117639 Ry
     estimated scf accuracy    <       0.05017352 Ry
     electrostatic embedding   =      -0.00078675 Ry
     electrolyte free energy   =      -0.00003922 Ry
     correction to one-el term =       2.16385602 Ry

     iteration #  5     ecut=    35.00 Ry     beta= 0.30
     Davidson diagonalization with overlap
     ethr =  1.30E-04,  avg # of iterations =  2.0

     negative rho (up, down):  6.016E-05 0.000E+00

     add environment contribution to local potential
     polarization accuracy = 9.7E-12, # of iterations =  27

     total cpu time spent up to now is       25.3 secs

     total energy              =    -168.84692716 Ry
     Harris-Foulkes estimate   =    -170.92505165 Ry
     estimated scf accuracy    <       0.03269171 Ry
     electrostatic embedding   =      -0.00046273 Ry
     electrolyte free energy   =      -0.00019298 Ry
     correction to one-el term =       2.07378690 Ry

     iteration #  6     ecut=    35.00 Ry     beta= 0.30
     Davidson diagonalization with overlap
     ethr =  1.30E-04,  avg # of iterations =  1.0

     negative rho (up, down):  4.948E-05 0.000E+00

     add environment contribution to local potential
     polarization accuracy = 8.2E-12, # of iterations =  25

     total cpu time spent up to now is       29.7 secs

     total energy              =    -168.84694652 Ry
     Harris-Foulkes estimate   =    -170.86953663 Ry
     estimated scf accuracy    <       0.01481611 Ry
     electrostatic embedding   =      -0.00109225 Ry
     electrolyte free energy   =       0.00000403 Ry
     correction to one-el term =       2.02249706 Ry

     iteration #  7     ecut=    35.00 Ry     beta= 0.30
     Davidson diagonalization with overlap
     ethr =  6.73E-05,  avg # of iterations =  1.0

     negative rho (up, down):  5.453E-05 0.000E+00

     add environment contribution to local potential
     polarization accuracy = 8.7E-12, # of iterations =  22

     total cpu time spent up to now is       33.8 secs

     total energy              =    -168.84442677 Ry
     Harris-Foulkes estimate   =    -170.86489142 Ry
     estimated scf accuracy    <       0.01185563 Ry
     electrostatic embedding   =      -0.00109602 Ry
     electrolyte free energy   =       0.00000417 Ry
     correction to one-el term =       2.01893076 Ry

     iteration #  8     ecut=    35.00 Ry     beta= 0.30
     Davidson diagonalization with overlap
     ethr =  5.39E-05,  avg # of iterations =  2.0

     negative rho (up, down):  4.750E-05 0.000E+00

     add environment contribution to local potential
     polarization accuracy = 8.4E-12, # of iterations =  20

     total cpu time spent up to now is       37.9 secs

     total energy              =    -168.84529451 Ry
     Harris-Foulkes estimate   =    -170.82852417 Ry
     estimated scf accuracy    <       0.00017057 Ry
     electrostatic embedding   =      -0.00118214 Ry
     electrolyte free energy   =       0.00000417 Ry
     correction to one-el term =       1.98440074 Ry

     iteration #  9     ecut=    35.00 Ry     beta= 0.30
     Davidson diagonalization with overlap
     ethr =  7.75E-07,  avg # of iterations =  4.0

     negative rho (up, down):  4.656E-05 0.000E+00

     add environment contribution to local potential
     polarization accuracy = 7.9E-12, # of iterations =  21

     total cpu time spent up to now is       42.0 secs

     total energy              =    -168.84533397 Ry
     Harris-Foulkes estimate   =    -170.82425145 Ry
     estimated scf accuracy    <       0.00038191 Ry
     electrostatic embedding   =      -0.00117892 Ry
     electrolyte free energy   =       0.00000400 Ry
     correction to one-el term =       1.98008979 Ry

     iteration # 10     ecut=    35.00 Ry     beta= 0.30
     Davidson diagonalization with overlap
     ethr =  7.75E-07,  avg # of iterations =  1.0

     negative rho (up, down):  4.362E-05 0.000E+00

     add environment contribution to local potential
     polarization accuracy = 3.7E-12, # of iterations =  17

     total cpu time spent up to now is       45.8 secs

     total energy              =    -168.84511774 Ry
     Harris-Foulkes estimate   =    -170.81305333 Ry
     estimated scf accuracy    <       0.00112323 Ry
     electrostatic embedding   =      -0.00119818 Ry
     electrolyte free energy   =       0.00000422 Ry
     correction to one-el term =       1.96889031 Ry

     iteration # 11     ecut=    35.00 Ry     beta= 0.30
     Davidson diagonalization with overlap
     ethr =  7.75E-07,  avg # of iterations =  2.0

     negative rho (up, down):  4.185E-05 0.000E+00

     add environment contribution to local potential
     polarization accuracy = 5.4E-12, # of iterations =  19

     total cpu time spent up to now is       49.8 secs

     total energy              =    -168.84537381 Ry
     Harris-Foulkes estimate   =    -170.80894750 Ry
     estimated scf accuracy    <       0.00122848 Ry
     electrostatic embedding   =      -0.00118626 Ry
     electrolyte free energy   =       0.00000422 Ry
     correction to one-el term =       1.96474560 Ry

     iteration # 12     ecut=    35.00 Ry     beta= 0.30
     Davidson diagonalization with overlap
     ethr =  7.75E-07,  avg # of iterations =  1.0

     negative rho (up, down):  4.072E-05 0.000E+00

     add environment contribution to local potential
     polarization accuracy = 7.7E-12, # of iterations =  15

     total cpu time spent up to now is       53.2 secs

     total energy              =    -168.84523229 Ry
     Harris-Foulkes estimate   =    -170.80845443 Ry
     estimated scf accuracy    <       0.00108908 Ry
     electrostatic embedding   =      -0.00118549 Ry
     electrolyte free energy   =       0.00000422 Ry
     correction to one-el term =       1.96426133 Ry

     iteration # 13     ecut=    35.00 Ry     beta= 0.30
     Davidson diagonalization with overlap
     ethr =  7.75E-07,  avg # of iterations =  2.0

     negative rho (up, down):  3.984E-05 0.000E+00

     add environment contribution to local potential
     polarization accuracy = 8.8E-12, # of iterations =  15

     total cpu time spent up to now is       56.6 secs

     total energy              =    -168.84530703 Ry
     Harris-Foulkes estimate   =    -170.80852252 Ry
     estimated scf accuracy    <       0.00001835 Ry
     electrostatic embedding   =      -0.00119084 Ry
     electrolyte free energy   =       0.00000422 Ry
     correction to one-el term =       1.96440274 Ry

     iteration # 14     ecut=    35.00 Ry     beta= 0.30
     Davidson diagonalization with overlap
     ethr =  8.34E-08,  avg # of iterations =  1.0

     negative rho (up, down):  3.942E-05 0.000E+00

     add environment contribution to local potential
     polarization accuracy = 6.7E-12, # of iterations =  12

     total cpu time spent up to now is       59.8 secs

     total energy              =    -168.84530496 Ry
     Harris-Foulkes estimate   =    -170.80845015 Ry
     estimated scf accuracy    <       0.00003690 Ry
     electrostatic embedding   =      -0.00119102 Ry
     electrolyte free energy   =       0.00000422 Ry
     correction to one-el term =       1.96432955 Ry

     iteration # 15     ecut=    35.00 Ry     beta= 0.30
     Davidson diagonalization with overlap
     ethr =  8.34E-08,  avg # of iterations =  1.0

     negative rho (up, down):  3.922E-05 0.000E+00

     add environment contribution to local potential
     polarization accuracy = 5.4E-12, # of iterations =  11

     total cpu time spent up to now is       62.9 secs

     total energy              =    -168.84530513 Ry
     Harris-Foulkes estimate   =    -170.80829453 Ry
     estimated scf accuracy    <       0.00000543 Ry
     electrostatic embedding   =      -0.00119022 Ry
     electrolyte free energy   =       0.00000422 Ry
     correction to one-el term =       1.96417471 Ry

     iteration # 16     ecut=    35.00 Ry     beta= 0.30
     Davidson diagonalization with overlap
     ethr =  2.47E-08,  avg # of iterations =  1.0

     negative rho (up, down):  3.889E-05 0.000E+00

     the potential shift due to the Gaussian-smeared nuclei is    -0.2351 ev

     total cpu time spent up to now is       64.6 secs

     End of self-consistent calculation

          k = 0.0000 0.0000 0.0000 (  7059 PWs)   bands (ev):

    -7.7813  -7.2603  -7.0255  -6.2612  -5.7085  -5.7085  -5.6816  -4.7688
    -4.7303  -4.7303  -4.3741  -4.1628  -1.5262   0.0243   0.0969

     the Fermi energy is    -4.2682 ev

!    total energy              =    -168.84530535 Ry
     Harris-Foulkes estimate   =    -170.80823483 Ry
     estimated scf accuracy    <       0.00000027 Ry

     The total energy is the sum of the following terms:

     one-electron contribution =   -1722.71646465 Ry
     hartree contribution      =     874.31975984 Ry
     xc contribution           =     -44.70750723 Ry
     ewald contribution        =     722.29669101 Ry
     smearing contrib. (-TS)   =      -0.00071357 Ry
     electrostatic embedding   =      -0.00118963 Ry
     electrolyte free energy   =       0.00000422 Ry
     correction to one-el term =       1.96411466 Ry

     WARNING: you are using the parabolic pbc correction;
              the potential shift above must be added to 
              band and Fermi energies.

     convergence has been achieved in  16 iterations

     negative rho (up, down):  3.889E-05 0.000E+00
 forces lc
       1    0.0000    0.0000   -0.0074
       2    0.0000    0.0000    0.0074

     Forces acting on atoms (cartesian axes, Ry/au):

     atom    1 type  1   force =     0.00000000    0.00000000    0.01576844
     atom    2 type  1   force =     0.00000000    0.00000000   -0.01576844

     Total force =     0.022300     Total SCF correction =     0.001894

     Writing output data file /Users/gabrielmedrano/Desktop/q-e/Environ/tests/../..//tempdir/pwscf.save/

     init_run     :      1.88s CPU      2.09s WALL (       1 calls)
     electrons    :     68.30s CPU     62.01s WALL (       1 calls)
     forces       :      1.10s CPU      1.20s WALL (       1 calls)

     Called by init_run:
     wfcinit      :      0.07s CPU      0.07s WALL (       1 calls)
     potinit      :      0.45s CPU      0.48s WALL (       1 calls)
     hinit0       :      0.80s CPU      0.82s WALL (       1 calls)

     Called by electrons:
     c_bands      :      2.02s CPU      1.76s WALL (      16 calls)
     sum_band     :     21.86s CPU     11.61s WALL (      16 calls)
     v_of_rho     :      2.65s CPU      3.00s WALL (      17 calls)
     newd         :      7.01s CPU      9.40s WALL (      17 calls)
     mix_rho      :      0.42s CPU      0.52s WALL (      16 calls)

     Called by c_bands:
     init_us_2    :      0.06s CPU      0.06s WALL (      33 calls)
     cegterg      :      1.82s CPU      1.56s WALL (      16 calls)

     Called by sum_band:
     sum_band:bec :      0.00s CPU      0.00s WALL (      16 calls)
     addusdens    :     21.09s CPU     10.86s WALL (      16 calls)

     Called by *egterg:
     h_psi        :      1.45s CPU      1.33s WALL (      59 calls)
     s_psi        :      0.11s CPU      0.02s WALL (      59 calls)
     g_psi        :      0.01s CPU      0.01s WALL (      42 calls)
     cdiaghg      :      0.02s CPU      0.02s WALL (      58 calls)

     Called by h_psi:
     h_psi:calbec :      0.10s CPU      0.05s WALL (      59 calls)
     vloc_psi     :      1.22s CPU      1.23s WALL (      59 calls)
     add_vuspsi   :      0.12s CPU      0.04s WALL (      59 calls)

     General routines
     calbec       :      0.15s CPU      0.08s WALL (      79 calls)
     fft          :     15.49s CPU     16.46s WALL (    1673 calls)
     ffts         :      0.07s CPU      0.07s WALL (      33 calls)
     fftw         :      1.29s CPU      1.30s WALL (    1362 calls)
     interpolate  :      0.19s CPU      0.20s WALL (      17 calls)

     Parallel routines
     fft_scatt_xy :      1.38s CPU      1.38s WALL (    1442 calls)
     fft_scatt_yz :      1.54s CPU      1.54s WALL (    1442 calls)

     Environ routines
     calc_eelect  :      0.03s CPU      0.03s WALL (      32 calls)
     calc_velect  :     30.00s CPU     31.24s WALL (      30 calls)
     calc_vgcs    :      0.60s CPU      0.60s WALL (      15 calls)
     dielectric   :      0.15s CPU      0.15s WALL (      19 calls)
     electrolyte  :      0.00s CPU      0.00s WALL (       2 calls)
     calc_felect  :      0.06s CPU      0.06s WALL (       1 calls)

     PWSCF        :   1m11.77s CPU   1m 5.82s WALL


   This run was terminated on:  13:35: 7   9Oct2020            

=------------------------------------------------------------------------------=
   JOB DONE.
=------------------------------------------------------------------------------=
 Calling electrostatic_initbase now
 electrolyte_distance:    20.213699999999999     
 sc_distance:    0.0000000000000000     
 velectrostatic started
 vreference created

%%%% IONS %%%%%%%%%%%%%%%%%%%%%%%%%%%%%%%%%%%%%%%%%%%%%%%%%%%%%%%%%%%%%%%%%%%%%%
 number of ions             =          2
 ionic center of charge     =      0.2500000     0.2500000     3.7555159
 total ionic charge         =    -22.0000000
 ionic dipole               =      0.0000000     0.0000000     0.0000000
 ionic quadrupole (pc)      =    -42.2546857   -42.2546857   -81.2309514
 ionic quadrupole (gauss)   =    -45.0046857   -45.0046857   -83.9809514
 ion   1 type =  1 coordinates =      2.7717630     2.7717630    18.8972600
 ion   2 type =  1 coordinates =      0.0000000     0.0000000    22.7403400

%%%% SYSTEM %%%%%%%%%%%%%%%%%%%%%%%%%%%%%%%%%%%%%%%%%%%%%%%%%%%%%%%%%%%%%%%%%%%%
 system is built from all present ionic types
 system defined dimension   =  2 
 system defined axis        =  3 
 system center              =      0.2500000     0.2500000     3.7555159 
 system width               =      0.3466278 

%%%% IONS %%%%%%%%%%%%%%%%%%%%%%%%%%%%%%%%%%%%%%%%%%%%%%%%%%%%%%%%%%%%%%%%%%%%%%
 number of ions             =          2
 ionic center of charge     =      0.2500000     0.2500000     3.7555159
 total ionic charge         =    -22.0000000
 ionic dipole               =      0.0000000     0.0000000     0.0000000
 ionic quadrupole (pc)      =    -42.2546857   -42.2546857   -81.2309514
 ionic quadrupole (gauss)   =    -45.0046857   -45.0046857   -83.9809514
 ion   1 type =  1 coordinates =      2.7717630     2.7717630    18.8972600
 ion   2 type =  1 coordinates =      0.0000000     0.0000000    22.7403400

%%%% SYSTEM %%%%%%%%%%%%%%%%%%%%%%%%%%%%%%%%%%%%%%%%%%%%%%%%%%%%%%%%%%%%%%%%%%%%
 system is built from all present ionic types
 system defined dimension   =  2 
 system defined axis        =  3 
 system center              =      0.2500000     0.2500000     3.7555159 
 system width               =      0.3466278 

%%%% DIELECTRIC %%%%%%%%%%%%%%%%%%%%%%%%%%%%%%%%%%%%%%%%%%%%%%%%%%%%%%%%%%%%%%%%%
 dielectric build on homogeneous background
 environment bulk permitt.  =     80.0000000 
 dielectric flags
 need gradient              =  F 
 need factor depend. sqrt   =  F 
 total dielectric charge    =      0.0000000

%%%% BOUNDARY %%%%%%%%%%%%%%%%%%%%%%%%%%%%%%%%%%%%%%%%%%%%%%%%%%%%%%%%%%%%%%%%%%
 boundary label             = electrolyte          
 boundary mode              = system               
 boundary is built as an analytic function centered on system position
 center of the boundary     =      0.2500000     0.2500000     3.7555159 
 distance from the center   =     20.2137000 
 spread of the interface    =      0.0010000 
 dimensionality             =  2 
 axis                       =  3 
 volume of the QM region    =   1245.0753797 
 surface of the QM region   =      0.0000000 

%%%% ELECTROLYTE %%%%%%%%%%%%%%%%%%%%%%%%%%%%%%%%%%%%%%%%%%%%%%%%%%%%%%%%%%%%%%%%
 number electrol. species   =    2
 solvent temperature        =   300.0
 Debye length / sqrt(eps)   =      6.5084097
 electrolyte species    1
 bulk concentration  (a.u.) =      0.8924E-06
 bulk concentration (mol/L) =      0.0100000
 ionic charge               =   -1.00
 electrolyte species    2
 bulk concentration  (a.u.) =      0.8924E-06
 bulk concentration (mol/L) =      0.0100000
 ionic charge               =    1.00
 electrolyte flags
 linearized                 =  F
 total electrolyte charge   =      0.0000000

%%%% ELECTRONS %%%%%%%%%%%%%%%%%%%%%%%%%%%%%%%%%%%%%%%%%%%%%%%%%%%%%%%%%%%%%%%%%
 number of electrons        =         22
 total electronic charge    =     22.0000000

%%%% ELECTRONS %%%%%%%%%%%%%%%%%%%%%%%%%%%%%%%%%%%%%%%%%%%%%%%%%%%%%%%%%%%%%%%%%
 number of electrons        =         22
 total electronic charge    =     22.0000000

%%%% BOUNDARY %%%%%%%%%%%%%%%%%%%%%%%%%%%%%%%%%%%%%%%%%%%%%%%%%%%%%%%%%%%%%%%%%%
 boundary label             = solvent              
 boundary mode              = electronic           
 boundary is built as a function of a smooth density
 function type              =  2 
 using the modified SCCS function with parameters 
 rhomax                     =      0.0050000 
 rhomin                     =      0.0001000 
 volume of the QM region    =    421.3270460 
 surface of the QM region   =     62.2806146 

%%%% DIELECTRIC %%%%%%%%%%%%%%%%%%%%%%%%%%%%%%%%%%%%%%%%%%%%%%%%%%%%%%%%%%%%%%%%%
 dielectric build on homogeneous background
 environment bulk permitt.  =     80.0000000 
 dielectric flags
 need gradient              =  F 
 need factor depend. sqrt   =  F 
 total dielectric charge    =      0.0000000

%%%% DENSITY %%%%%%%%%%%%%%%%%%%%%%%%%%%%%%%%%%%%%%%%%%%%%%%%%%%%%%%%%%%%%%%%%%%
 density label              = dvtot                                                                           
 integral of density        =      0.000000000    

%%%% DENSITY %%%%%%%%%%%%%%%%%%%%%%%%%%%%%%%%%%%%%%%%%%%%%%%%%%%%%%%%%%%%%%%%%%%
 density label              = vreference                                                                      
 integral of density        =      0.000000000    

%%%% DENSITY %%%%%%%%%%%%%%%%%%%%%%%%%%%%%%%%%%%%%%%%%%%%%%%%%%%%%%%%%%%%%%%%%%%
 density label              = velectrostatic                                                                  
 integral of density        =      0.000000000    

%%%% CHARGES %%%%%%%%%%%%%%%%%%%%%%%%%%%%%%%%%%%%%%%%%%%%%%%%%%%%%%%%%%%%%%%%%%%
 total number of charges    =         24
 total charge               =     -0.0000000

%%%% DENSITY %%%%%%%%%%%%%%%%%%%%%%%%%%%%%%%%%%%%%%%%%%%%%%%%%%%%%%%%%%%%%%%%%%%
 density label              = vsoftcavity                                                                     
 integral of density        =      0.000000000    

%%%% ELECTRONS %%%%%%%%%%%%%%%%%%%%%%%%%%%%%%%%%%%%%%%%%%%%%%%%%%%%%%%%%%%%%%%%%
 number of electrons        =         22
 total electronic charge    =     22.0000000

%%%% ELECTRONS %%%%%%%%%%%%%%%%%%%%%%%%%%%%%%%%%%%%%%%%%%%%%%%%%%%%%%%%%%%%%%%%%
 number of electrons        =         22
 total electronic charge    =     22.0000000

%%%% BOUNDARY %%%%%%%%%%%%%%%%%%%%%%%%%%%%%%%%%%%%%%%%%%%%%%%%%%%%%%%%%%%%%%%%%%
 boundary label             = solvent              
 boundary mode              = electronic           
 boundary is built as a function of a smooth density
 function type              =  2 
 using the modified SCCS function with parameters 
 rhomax                     =      0.0050000 
 rhomin                     =      0.0001000 
 volume of the QM region    =    406.3384779 
 surface of the QM region   =     62.4784211 

%%%% DIELECTRIC %%%%%%%%%%%%%%%%%%%%%%%%%%%%%%%%%%%%%%%%%%%%%%%%%%%%%%%%%%%%%%%%%
 dielectric build on homogeneous background
 environment bulk permitt.  =     80.0000000 
 dielectric flags
 need gradient              =  F 
 need factor depend. sqrt   =  F 
 total dielectric charge    =      0.0000000

%%%% DENSITY %%%%%%%%%%%%%%%%%%%%%%%%%%%%%%%%%%%%%%%%%%%%%%%%%%%%%%%%%%%%%%%%%%%
 density label              = vreference                                                                      
 integral of density        =     0.6400928418E-11

%%%% COMPUTE ELECTROSTATIC POTENTIAL %%%%%%%%%%%%%%%%%%%%%%%%%%%%%%%%%%%%%%%%%%%
 Starting from polarization: rhoiter =      0.000000 jellium =      0.000000
 Iteration #          1
 calling poisson_gradient_direct
 finished poisson_gradient_direct
 finished scalar product environ gradient
 delta_qm =   0.774965E-03 delta_en =   0.311336E+00 tol =   0.100000E-10
 Iteration #          2
 calling poisson_gradient_direct
 finished poisson_gradient_direct
 finished scalar product environ gradient
 delta_qm =   0.679691E-03 delta_en =   0.239491E+00 tol =   0.100000E-10
 Iteration #          3
 calling poisson_gradient_direct
 finished poisson_gradient_direct
 finished scalar product environ gradient
 delta_qm =   0.167384E-03 delta_en =   0.145242E-01 tol =   0.100000E-10
 Iteration #          4
 calling poisson_gradient_direct
 finished poisson_gradient_direct
 finished scalar product environ gradient
 delta_qm =   0.120112E-03 delta_en =   0.747892E-02 tol =   0.100000E-10
 Iteration #          5
 calling poisson_gradient_direct
 finished poisson_gradient_direct
 finished scalar product environ gradient
 delta_qm =   0.487428E-04 delta_en =   0.123165E-02 tol =   0.100000E-10
 Iteration #          6
 calling poisson_gradient_direct
 finished poisson_gradient_direct
 finished scalar product environ gradient
 delta_qm =   0.208760E-04 delta_en =   0.225923E-03 tol =   0.100000E-10
 Iteration #          7
 calling poisson_gradient_direct
 finished poisson_gradient_direct
 finished scalar product environ gradient
 delta_qm =   0.126169E-04 delta_en =   0.825221E-04 tol =   0.100000E-10
 Iteration #          8
 calling poisson_gradient_direct
 finished poisson_gradient_direct
 finished scalar product environ gradient
 delta_qm =   0.648813E-05 delta_en =   0.218225E-04 tol =   0.100000E-10
 Iteration #          9
 calling poisson_gradient_direct
 finished poisson_gradient_direct
 finished scalar product environ gradient
 delta_qm =   0.296271E-05 delta_en =   0.455035E-05 tol =   0.100000E-10
 Iteration #         10
 calling poisson_gradient_direct
 finished poisson_gradient_direct
 finished scalar product environ gradient
 delta_qm =   0.154155E-05 delta_en =   0.123191E-05 tol =   0.100000E-10
 Iteration #         11
 calling poisson_gradient_direct
 finished poisson_gradient_direct
 finished scalar product environ gradient
 delta_qm =   0.934280E-06 delta_en =   0.452501E-06 tol =   0.100000E-10
 Iteration #         12
 calling poisson_gradient_direct
 finished poisson_gradient_direct
 finished scalar product environ gradient
 delta_qm =   0.553558E-06 delta_en =   0.158852E-06 tol =   0.100000E-10
 Iteration #         13
 calling poisson_gradient_direct
 finished poisson_gradient_direct
 finished scalar product environ gradient
 delta_qm =   0.307881E-06 delta_en =   0.491396E-07 tol =   0.100000E-10
 Iteration #         14
 calling poisson_gradient_direct
 finished poisson_gradient_direct
 finished scalar product environ gradient
 delta_qm =   0.171955E-06 delta_en =   0.153284E-07 tol =   0.100000E-10
 Iteration #         15
 calling poisson_gradient_direct
 finished poisson_gradient_direct
 finished scalar product environ gradient
 delta_qm =   0.104137E-06 delta_en =   0.562181E-08 tol =   0.100000E-10
 Iteration #         16
 calling poisson_gradient_direct
 finished poisson_gradient_direct
 finished scalar product environ gradient
 delta_qm =   0.674573E-07 delta_en =   0.235897E-08 tol =   0.100000E-10
 Iteration #         17
 calling poisson_gradient_direct
 finished poisson_gradient_direct
 finished scalar product environ gradient
 delta_qm =   0.422360E-07 delta_en =   0.924764E-09 tol =   0.100000E-10
 Iteration #         18
 calling poisson_gradient_direct
 finished poisson_gradient_direct
 finished scalar product environ gradient
 delta_qm =   0.246572E-07 delta_en =   0.315174E-09 tol =   0.100000E-10
 Iteration #         19
 calling poisson_gradient_direct
 finished poisson_gradient_direct
 finished scalar product environ gradient
 delta_qm =   0.148020E-07 delta_en =   0.113582E-09 tol =   0.100000E-10
 Iteration #         20
 calling poisson_gradient_direct
 finished poisson_gradient_direct
 finished scalar product environ gradient
 delta_qm =   0.909549E-08 delta_en =   0.428861E-10 tol =   0.100000E-10
 Iteration #         21
 calling poisson_gradient_direct
 finished poisson_gradient_direct
 finished scalar product environ gradient
 delta_qm =   0.603883E-08 delta_en =   0.189047E-10 tol =   0.100000E-10
 Iteration #         22
 calling poisson_gradient_direct
 finished poisson_gradient_direct
 finished scalar product environ gradient
 delta_qm =   0.346193E-08 delta_en =   0.621299E-11 tol =   0.100000E-10
 Charges are converged, EXIT

%%%% DENSITY %%%%%%%%%%%%%%%%%%%%%%%%%%%%%%%%%%%%%%%%%%%%%%%%%%%%%%%%%%%%%%%%%%%
 density label              = velectrostatic                                                                  
 integral of density        =     -231.6130639    

%%%% CHARGES %%%%%%%%%%%%%%%%%%%%%%%%%%%%%%%%%%%%%%%%%%%%%%%%%%%%%%%%%%%%%%%%%%%
 total number of charges    =         24
 total charge               =      0.0000000

%%%% DENSITY %%%%%%%%%%%%%%%%%%%%%%%%%%%%%%%%%%%%%%%%%%%%%%%%%%%%%%%%%%%%%%%%%%%
 density label              = vsoftcavity                                                                     
 integral of density        =     0.7566675148    

%%%% DENSITY %%%%%%%%%%%%%%%%%%%%%%%%%%%%%%%%%%%%%%%%%%%%%%%%%%%%%%%%%%%%%%%%%%%
 density label              = dvtot                                                                           
 integral of density        =     -230.8563964    

%%%% ELECTRONS %%%%%%%%%%%%%%%%%%%%%%%%%%%%%%%%%%%%%%%%%%%%%%%%%%%%%%%%%%%%%%%%%
 number of electrons        =         22
 total electronic charge    =     22.0000000

%%%% ELECTRONS %%%%%%%%%%%%%%%%%%%%%%%%%%%%%%%%%%%%%%%%%%%%%%%%%%%%%%%%%%%%%%%%%
 number of electrons        =         22
 total electronic charge    =     22.0000000

%%%% BOUNDARY %%%%%%%%%%%%%%%%%%%%%%%%%%%%%%%%%%%%%%%%%%%%%%%%%%%%%%%%%%%%%%%%%%
 boundary label             = solvent              
 boundary mode              = electronic           
 boundary is built as a function of a smooth density
 function type              =  2 
 using the modified SCCS function with parameters 
 rhomax                     =      0.0050000 
 rhomin                     =      0.0001000 
 volume of the QM region    =    398.4146817 
 surface of the QM region   =     62.5625725 

%%%% DIELECTRIC %%%%%%%%%%%%%%%%%%%%%%%%%%%%%%%%%%%%%%%%%%%%%%%%%%%%%%%%%%%%%%%%%
 dielectric build on homogeneous background
 environment bulk permitt.  =     80.0000000 
 dielectric flags
 need gradient              =  F 
 need factor depend. sqrt   =  F 
 total dielectric charge    =      0.0000039

%%%% DENSITY %%%%%%%%%%%%%%%%%%%%%%%%%%%%%%%%%%%%%%%%%%%%%%%%%%%%%%%%%%%%%%%%%%%
 density label              = vreference                                                                      
 integral of density        =     0.2672436277E-11

%%%% COMPUTE ELECTROSTATIC POTENTIAL %%%%%%%%%%%%%%%%%%%%%%%%%%%%%%%%%%%%%%%%%%%
 Starting from polarization: rhoiter =      0.080670 jellium =      0.000000
 Iteration #          1
 calling poisson_gradient_direct
 finished poisson_gradient_direct
 finished scalar product environ gradient
 delta_qm =   0.887603E-04 delta_en =   0.408416E-02 tol =   0.100000E-10
 Iteration #          2
 calling poisson_gradient_direct
 finished poisson_gradient_direct
 finished scalar product environ gradient
 delta_qm =   0.668762E-04 delta_en =   0.231851E-02 tol =   0.100000E-10
 Iteration #          3
 calling poisson_gradient_direct
 finished poisson_gradient_direct
 finished scalar product environ gradient
 delta_qm =   0.352996E-04 delta_en =   0.645958E-03 tol =   0.100000E-10
 Iteration #          4
 calling poisson_gradient_direct
 finished poisson_gradient_direct
 finished scalar product environ gradient
 delta_qm =   0.196834E-04 delta_en =   0.200847E-03 tol =   0.100000E-10
 Iteration #          5
 calling poisson_gradient_direct
 finished poisson_gradient_direct
 finished scalar product environ gradient
 delta_qm =   0.101328E-04 delta_en =   0.532262E-04 tol =   0.100000E-10
 Iteration #          6
 calling poisson_gradient_direct
 finished poisson_gradient_direct
 finished scalar product environ gradient
 delta_qm =   0.626685E-05 delta_en =   0.203594E-04 tol =   0.100000E-10
 Iteration #          7
 calling poisson_gradient_direct
 finished poisson_gradient_direct
 finished scalar product environ gradient
 delta_qm =   0.352489E-05 delta_en =   0.644105E-05 tol =   0.100000E-10
 Iteration #          8
 calling poisson_gradient_direct
 finished poisson_gradient_direct
 finished scalar product environ gradient
 delta_qm =   0.197103E-05 delta_en =   0.201396E-05 tol =   0.100000E-10
 Iteration #          9
 calling poisson_gradient_direct
 finished poisson_gradient_direct
 finished scalar product environ gradient
 delta_qm =   0.121944E-05 delta_en =   0.770885E-06 tol =   0.100000E-10
 Iteration #         10
 calling poisson_gradient_direct
 finished poisson_gradient_direct
 finished scalar product environ gradient
 delta_qm =   0.761449E-06 delta_en =   0.300571E-06 tol =   0.100000E-10
 Iteration #         11
 calling poisson_gradient_direct
 finished poisson_gradient_direct
 finished scalar product environ gradient
 delta_qm =   0.449116E-06 delta_en =   0.104564E-06 tol =   0.100000E-10
 Iteration #         12
 calling poisson_gradient_direct
 finished poisson_gradient_direct
 finished scalar product environ gradient
 delta_qm =   0.262133E-06 delta_en =   0.356212E-07 tol =   0.100000E-10
 Iteration #         13
 calling poisson_gradient_direct
 finished poisson_gradient_direct
 finished scalar product environ gradient
 delta_qm =   0.161996E-06 delta_en =   0.136043E-07 tol =   0.100000E-10
 Iteration #         14
 calling poisson_gradient_direct
 finished poisson_gradient_direct
 finished scalar product environ gradient
 delta_qm =   0.104368E-06 delta_en =   0.564678E-08 tol =   0.100000E-10
 Iteration #         15
 calling poisson_gradient_direct
 finished poisson_gradient_direct
 finished scalar product environ gradient
 delta_qm =   0.653256E-07 delta_en =   0.221224E-08 tol =   0.100000E-10
 Iteration #         16
 calling poisson_gradient_direct
 finished poisson_gradient_direct
 finished scalar product environ gradient
 delta_qm =   0.390636E-07 delta_en =   0.791059E-09 tol =   0.100000E-10
 Iteration #         17
 calling poisson_gradient_direct
 finished poisson_gradient_direct
 finished scalar product environ gradient
 delta_qm =   0.230285E-07 delta_en =   0.274913E-09 tol =   0.100000E-10
 Iteration #         18
 calling poisson_gradient_direct
 finished poisson_gradient_direct
 finished scalar product environ gradient
 delta_qm =   0.145738E-07 delta_en =   0.110106E-09 tol =   0.100000E-10
 Iteration #         19
 calling poisson_gradient_direct
 finished poisson_gradient_direct
 finished scalar product environ gradient
 delta_qm =   0.921588E-08 delta_en =   0.440289E-10 tol =   0.100000E-10
 Iteration #         20
 calling poisson_gradient_direct
 finished poisson_gradient_direct
 finished scalar product environ gradient
 delta_qm =   0.594265E-08 delta_en =   0.183074E-10 tol =   0.100000E-10
 Iteration #         21
 calling poisson_gradient_direct
 finished poisson_gradient_direct
 finished scalar product environ gradient
 delta_qm =   0.401384E-08 delta_en =   0.835190E-11 tol =   0.100000E-10
 Charges are converged, EXIT

%%%% DENSITY %%%%%%%%%%%%%%%%%%%%%%%%%%%%%%%%%%%%%%%%%%%%%%%%%%%%%%%%%%%%%%%%%%%
 density label              = velectrostatic                                                                  
 integral of density        =     -218.0698556    

%%%% CHARGES %%%%%%%%%%%%%%%%%%%%%%%%%%%%%%%%%%%%%%%%%%%%%%%%%%%%%%%%%%%%%%%%%%%
 total number of charges    =         24
 total charge               =      0.0000000

%%%% DENSITY %%%%%%%%%%%%%%%%%%%%%%%%%%%%%%%%%%%%%%%%%%%%%%%%%%%%%%%%%%%%%%%%%%%
 density label              = vsoftcavity                                                                     
 integral of density        =     0.9684937507    

%%%% DENSITY %%%%%%%%%%%%%%%%%%%%%%%%%%%%%%%%%%%%%%%%%%%%%%%%%%%%%%%%%%%%%%%%%%%
 density label              = dvtot                                                                           
 integral of density        =     -217.1013618    

%%%% ELECTRONS %%%%%%%%%%%%%%%%%%%%%%%%%%%%%%%%%%%%%%%%%%%%%%%%%%%%%%%%%%%%%%%%%
 number of electrons        =         22
 total electronic charge    =     22.0000000

%%%% ELECTRONS %%%%%%%%%%%%%%%%%%%%%%%%%%%%%%%%%%%%%%%%%%%%%%%%%%%%%%%%%%%%%%%%%
 number of electrons        =         22
 total electronic charge    =     22.0000000

%%%% BOUNDARY %%%%%%%%%%%%%%%%%%%%%%%%%%%%%%%%%%%%%%%%%%%%%%%%%%%%%%%%%%%%%%%%%%
 boundary label             = solvent              
 boundary mode              = electronic           
 boundary is built as a function of a smooth density
 function type              =  2 
 using the modified SCCS function with parameters 
 rhomax                     =      0.0050000 
 rhomin                     =      0.0001000 
 volume of the QM region    =    411.5705728 
 surface of the QM region   =     62.2552210 

%%%% DIELECTRIC %%%%%%%%%%%%%%%%%%%%%%%%%%%%%%%%%%%%%%%%%%%%%%%%%%%%%%%%%%%%%%%%%
 dielectric build on homogeneous background
 environment bulk permitt.  =     80.0000000 
 dielectric flags
 need gradient              =  F 
 need factor depend. sqrt   =  F 
 total dielectric charge    =     -0.0000041

%%%% DENSITY %%%%%%%%%%%%%%%%%%%%%%%%%%%%%%%%%%%%%%%%%%%%%%%%%%%%%%%%%%%%%%%%%%%
 density label              = vreference                                                                      
 integral of density        =     0.5951620043E-11

%%%% COMPUTE ELECTROSTATIC POTENTIAL %%%%%%%%%%%%%%%%%%%%%%%%%%%%%%%%%%%%%%%%%%%
 Starting from polarization: rhoiter =      0.079637 jellium =      0.000000
 Iteration #          1
 calling poisson_gradient_direct
 finished poisson_gradient_direct
 finished scalar product environ gradient
 delta_qm =   0.844123E-04 delta_en =   0.369383E-02 tol =   0.100000E-10
 Iteration #          2
 calling poisson_gradient_direct
 finished poisson_gradient_direct
 finished scalar product environ gradient
 delta_qm =   0.439857E-04 delta_en =   0.100297E-02 tol =   0.100000E-10
 Iteration #          3
 calling poisson_gradient_direct
 finished poisson_gradient_direct
 finished scalar product environ gradient
 delta_qm =   0.289654E-04 delta_en =   0.434935E-03 tol =   0.100000E-10
 Iteration #          4
 calling poisson_gradient_direct
 finished poisson_gradient_direct
 finished scalar product environ gradient
 delta_qm =   0.145899E-04 delta_en =   0.110350E-03 tol =   0.100000E-10
 Iteration #          5
 calling poisson_gradient_direct
 finished poisson_gradient_direct
 finished scalar product environ gradient
 delta_qm =   0.853562E-05 delta_en =   0.377690E-04 tol =   0.100000E-10
 Iteration #          6
 calling poisson_gradient_direct
 finished poisson_gradient_direct
 finished scalar product environ gradient
 delta_qm =   0.506594E-05 delta_en =   0.133041E-04 tol =   0.100000E-10
 Iteration #          7
 calling poisson_gradient_direct
 finished poisson_gradient_direct
 finished scalar product environ gradient
 delta_qm =   0.273980E-05 delta_en =   0.389136E-05 tol =   0.100000E-10
 Iteration #          8
 calling poisson_gradient_direct
 finished poisson_gradient_direct
 finished scalar product environ gradient
 delta_qm =   0.156345E-05 delta_en =   0.126716E-05 tol =   0.100000E-10
 Iteration #          9
 calling poisson_gradient_direct
 finished poisson_gradient_direct
 finished scalar product environ gradient
 delta_qm =   0.963134E-06 delta_en =   0.480882E-06 tol =   0.100000E-10
 Iteration #         10
 calling poisson_gradient_direct
 finished poisson_gradient_direct
 finished scalar product environ gradient
 delta_qm =   0.582348E-06 delta_en =   0.175805E-06 tol =   0.100000E-10
 Iteration #         11
 calling poisson_gradient_direct
 finished poisson_gradient_direct
 finished scalar product environ gradient
 delta_qm =   0.338061E-06 delta_en =   0.592456E-07 tol =   0.100000E-10
 Iteration #         12
 calling poisson_gradient_direct
 finished poisson_gradient_direct
 finished scalar product environ gradient
 delta_qm =   0.200088E-06 delta_en =   0.207543E-07 tol =   0.100000E-10
 Iteration #         13
 calling poisson_gradient_direct
 finished poisson_gradient_direct
 finished scalar product environ gradient
 delta_qm =   0.127186E-06 delta_en =   0.838580E-08 tol =   0.100000E-10
 Iteration #         14
 calling poisson_gradient_direct
 finished poisson_gradient_direct
 finished scalar product environ gradient
 delta_qm =   0.843090E-07 delta_en =   0.368479E-08 tol =   0.100000E-10
 Iteration #         15
 calling poisson_gradient_direct
 finished poisson_gradient_direct
 finished scalar product environ gradient
 delta_qm =   0.557149E-07 delta_en =   0.160919E-08 tol =   0.100000E-10
 Iteration #         16
 calling poisson_gradient_direct
 finished poisson_gradient_direct
 finished scalar product environ gradient
 delta_qm =   0.369377E-07 delta_en =   0.707303E-09 tol =   0.100000E-10
 Iteration #         17
 calling poisson_gradient_direct
 finished poisson_gradient_direct
 finished scalar product environ gradient
 delta_qm =   0.252788E-07 delta_en =   0.331266E-09 tol =   0.100000E-10
 Iteration #         18
 calling poisson_gradient_direct
 finished poisson_gradient_direct
 finished scalar product environ gradient
 delta_qm =   0.185020E-07 delta_en =   0.177461E-09 tol =   0.100000E-10
 Iteration #         19
 calling poisson_gradient_direct
 finished poisson_gradient_direct
 finished scalar product environ gradient
 delta_qm =   0.132607E-07 delta_en =   0.911587E-10 tol =   0.100000E-10
 Iteration #         20
 calling poisson_gradient_direct
 finished poisson_gradient_direct
 finished scalar product environ gradient
 delta_qm =   0.983225E-08 delta_en =   0.501153E-10 tol =   0.100000E-10
 Iteration #         21
 calling poisson_gradient_direct
 finished poisson_gradient_direct
 finished scalar product environ gradient
 delta_qm =   0.738506E-08 delta_en =   0.282731E-10 tol =   0.100000E-10
 Iteration #         22
 calling poisson_gradient_direct
 finished poisson_gradient_direct
 finished scalar product environ gradient
 delta_qm =   0.546330E-08 delta_en =   0.154730E-10 tol =   0.100000E-10
 Iteration #         23
 calling poisson_gradient_direct
 finished poisson_gradient_direct
 finished scalar product environ gradient
 delta_qm =   0.402177E-08 delta_en =   0.838494E-11 tol =   0.100000E-10
 Charges are converged, EXIT

%%%% DENSITY %%%%%%%%%%%%%%%%%%%%%%%%%%%%%%%%%%%%%%%%%%%%%%%%%%%%%%%%%%%%%%%%%%%
 density label              = velectrostatic                                                                  
 integral of density        =     -236.5527263    

%%%% CHARGES %%%%%%%%%%%%%%%%%%%%%%%%%%%%%%%%%%%%%%%%%%%%%%%%%%%%%%%%%%%%%%%%%%%
 total number of charges    =         24
 total charge               =      0.0000000

%%%% DENSITY %%%%%%%%%%%%%%%%%%%%%%%%%%%%%%%%%%%%%%%%%%%%%%%%%%%%%%%%%%%%%%%%%%%
 density label              = vsoftcavity                                                                     
 integral of density        =     0.9023476121    

%%%% DENSITY %%%%%%%%%%%%%%%%%%%%%%%%%%%%%%%%%%%%%%%%%%%%%%%%%%%%%%%%%%%%%%%%%%%
 density label              = dvtot                                                                           
 integral of density        =     -235.6503786    

%%%% ELECTRONS %%%%%%%%%%%%%%%%%%%%%%%%%%%%%%%%%%%%%%%%%%%%%%%%%%%%%%%%%%%%%%%%%
 number of electrons        =         22
 total electronic charge    =     22.0000000

%%%% ELECTRONS %%%%%%%%%%%%%%%%%%%%%%%%%%%%%%%%%%%%%%%%%%%%%%%%%%%%%%%%%%%%%%%%%
 number of electrons        =         22
 total electronic charge    =     22.0000000

%%%% BOUNDARY %%%%%%%%%%%%%%%%%%%%%%%%%%%%%%%%%%%%%%%%%%%%%%%%%%%%%%%%%%%%%%%%%%
 boundary label             = solvent              
 boundary mode              = electronic           
 boundary is built as a function of a smooth density
 function type              =  2 
 using the modified SCCS function with parameters 
 rhomax                     =      0.0050000 
 rhomin                     =      0.0001000 
 volume of the QM region    =    408.4880738 
 surface of the QM region   =     62.2405201 

%%%% DIELECTRIC %%%%%%%%%%%%%%%%%%%%%%%%%%%%%%%%%%%%%%%%%%%%%%%%%%%%%%%%%%%%%%%%%
 dielectric build on homogeneous background
 environment bulk permitt.  =     80.0000000 
 dielectric flags
 need gradient              =  F 
 need factor depend. sqrt   =  F 
 total dielectric charge    =      0.0001188

%%%% DENSITY %%%%%%%%%%%%%%%%%%%%%%%%%%%%%%%%%%%%%%%%%%%%%%%%%%%%%%%%%%%%%%%%%%%
 density label              = vreference                                                                      
 integral of density        =    -0.2295524009E-11

%%%% COMPUTE ELECTROSTATIC POTENTIAL %%%%%%%%%%%%%%%%%%%%%%%%%%%%%%%%%%%%%%%%%%%
 Starting from polarization: rhoiter =      0.085247 jellium =      0.000000
 Iteration #          1
 calling poisson_gradient_direct
 finished poisson_gradient_direct
 finished scalar product environ gradient
 delta_qm =   0.515451E-04 delta_en =   0.137734E-02 tol =   0.100000E-10
 Iteration #          2
 calling poisson_gradient_direct
 finished poisson_gradient_direct
 finished scalar product environ gradient
 delta_qm =   0.437934E-04 delta_en =   0.994221E-03 tol =   0.100000E-10
 Iteration #          3
 calling poisson_gradient_direct
 finished poisson_gradient_direct
 finished scalar product environ gradient
 delta_qm =   0.207945E-04 delta_en =   0.224162E-03 tol =   0.100000E-10
 Iteration #          4
 calling poisson_gradient_direct
 finished poisson_gradient_direct
 finished scalar product environ gradient
 delta_qm =   0.118099E-04 delta_en =   0.723037E-04 tol =   0.100000E-10
 Iteration #          5
 calling poisson_gradient_direct
 finished poisson_gradient_direct
 finished scalar product environ gradient
 delta_qm =   0.559423E-05 delta_en =   0.162235E-04 tol =   0.100000E-10
 Iteration #          6
 calling poisson_gradient_direct
 finished poisson_gradient_direct
 finished scalar product environ gradient
 delta_qm =   0.339612E-05 delta_en =   0.597903E-05 tol =   0.100000E-10
 Iteration #          7
 calling poisson_gradient_direct
 finished poisson_gradient_direct
 finished scalar product environ gradient
 delta_qm =   0.191737E-05 delta_en =   0.190580E-05 tol =   0.100000E-10
 Iteration #          8
 calling poisson_gradient_direct
 finished poisson_gradient_direct
 finished scalar product environ gradient
 delta_qm =   0.107313E-05 delta_en =   0.596989E-06 tol =   0.100000E-10
 Iteration #          9
 calling poisson_gradient_direct
 finished poisson_gradient_direct
 finished scalar product environ gradient
 delta_qm =   0.705131E-06 delta_en =   0.257754E-06 tol =   0.100000E-10
 Iteration #         10
 calling poisson_gradient_direct
 finished poisson_gradient_direct
 finished scalar product environ gradient
 delta_qm =   0.512010E-06 delta_en =   0.135901E-06 tol =   0.100000E-10
 Iteration #         11
 calling poisson_gradient_direct
 finished poisson_gradient_direct
 finished scalar product environ gradient
 delta_qm =   0.385972E-06 delta_en =   0.772285E-07 tol =   0.100000E-10
 Iteration #         12
 calling poisson_gradient_direct
 finished poisson_gradient_direct
 finished scalar product environ gradient
 delta_qm =   0.301838E-06 delta_en =   0.472294E-07 tol =   0.100000E-10
 Iteration #         13
 calling poisson_gradient_direct
 finished poisson_gradient_direct
 finished scalar product environ gradient
 delta_qm =   0.241531E-06 delta_en =   0.302419E-07 tol =   0.100000E-10
 Iteration #         14
 calling poisson_gradient_direct
 finished poisson_gradient_direct
 finished scalar product environ gradient
 delta_qm =   0.193984E-06 delta_en =   0.195073E-07 tol =   0.100000E-10
 Iteration #         15
 calling poisson_gradient_direct
 finished poisson_gradient_direct
 finished scalar product environ gradient
 delta_qm =   0.154499E-06 delta_en =   0.123742E-07 tol =   0.100000E-10
 Iteration #         16
 calling poisson_gradient_direct
 finished poisson_gradient_direct
 finished scalar product environ gradient
 delta_qm =   0.121872E-06 delta_en =   0.769967E-08 tol =   0.100000E-10
 Iteration #         17
 calling poisson_gradient_direct
 finished poisson_gradient_direct
 finished scalar product environ gradient
 delta_qm =   0.951703E-07 delta_en =   0.469535E-08 tol =   0.100000E-10
 Iteration #         18
 calling poisson_gradient_direct
 finished poisson_gradient_direct
 finished scalar product environ gradient
 delta_qm =   0.737827E-07 delta_en =   0.282211E-08 tol =   0.100000E-10
 Iteration #         19
 calling poisson_gradient_direct
 finished poisson_gradient_direct
 finished scalar product environ gradient
 delta_qm =   0.566513E-07 delta_en =   0.166374E-08 tol =   0.100000E-10
 Iteration #         20
 calling poisson_gradient_direct
 finished poisson_gradient_direct
 finished scalar product environ gradient
 delta_qm =   0.429463E-07 delta_en =   0.956128E-09 tol =   0.100000E-10
 Iteration #         21
 calling poisson_gradient_direct
 finished poisson_gradient_direct
 finished scalar product environ gradient
 delta_qm =   0.322687E-07 delta_en =   0.539793E-09 tol =   0.100000E-10
 Iteration #         22
 calling poisson_gradient_direct
 finished poisson_gradient_direct
 finished scalar product environ gradient
 delta_qm =   0.240363E-07 delta_en =   0.299502E-09 tol =   0.100000E-10
 Iteration #         23
 calling poisson_gradient_direct
 finished poisson_gradient_direct
 finished scalar product environ gradient
 delta_qm =   0.177305E-07 delta_en =   0.162970E-09 tol =   0.100000E-10
 Iteration #         24
 calling poisson_gradient_direct
 finished poisson_gradient_direct
 finished scalar product environ gradient
 delta_qm =   0.131295E-07 delta_en =   0.893641E-10 tol =   0.100000E-10
 Iteration #         25
 calling poisson_gradient_direct
 finished poisson_gradient_direct
 finished scalar product environ gradient
 delta_qm =   0.962902E-08 delta_en =   0.480650E-10 tol =   0.100000E-10
 Iteration #         26
 calling poisson_gradient_direct
 finished poisson_gradient_direct
 finished scalar product environ gradient
 delta_qm =   0.696240E-08 delta_en =   0.251294E-10 tol =   0.100000E-10
 Iteration #         27
 calling poisson_gradient_direct
 finished poisson_gradient_direct
 finished scalar product environ gradient
 delta_qm =   0.499979E-08 delta_en =   0.129589E-10 tol =   0.100000E-10
 Iteration #         28
 calling poisson_gradient_direct
 finished poisson_gradient_direct
 finished scalar product environ gradient
 delta_qm =   0.350380E-08 delta_en =   0.636421E-11 tol =   0.100000E-10
 Charges are converged, EXIT

%%%% DENSITY %%%%%%%%%%%%%%%%%%%%%%%%%%%%%%%%%%%%%%%%%%%%%%%%%%%%%%%%%%%%%%%%%%%
 density label              = velectrostatic                                                                  
 integral of density        =     -227.6435385    

%%%% CHARGES %%%%%%%%%%%%%%%%%%%%%%%%%%%%%%%%%%%%%%%%%%%%%%%%%%%%%%%%%%%%%%%%%%%
 total number of charges    =         24
 total charge               =      0.0000000

%%%% DENSITY %%%%%%%%%%%%%%%%%%%%%%%%%%%%%%%%%%%%%%%%%%%%%%%%%%%%%%%%%%%%%%%%%%%
 density label              = vsoftcavity                                                                     
 integral of density        =      1.049391421    

%%%% DENSITY %%%%%%%%%%%%%%%%%%%%%%%%%%%%%%%%%%%%%%%%%%%%%%%%%%%%%%%%%%%%%%%%%%%
 density label              = dvtot                                                                           
 integral of density        =     -226.5941471    

%%%% ELECTRONS %%%%%%%%%%%%%%%%%%%%%%%%%%%%%%%%%%%%%%%%%%%%%%%%%%%%%%%%%%%%%%%%%
 number of electrons        =         22
 total electronic charge    =     22.0000000

%%%% ELECTRONS %%%%%%%%%%%%%%%%%%%%%%%%%%%%%%%%%%%%%%%%%%%%%%%%%%%%%%%%%%%%%%%%%
 number of electrons        =         22
 total electronic charge    =     22.0000000

%%%% BOUNDARY %%%%%%%%%%%%%%%%%%%%%%%%%%%%%%%%%%%%%%%%%%%%%%%%%%%%%%%%%%%%%%%%%%
 boundary label             = solvent              
 boundary mode              = electronic           
 boundary is built as a function of a smooth density
 function type              =  2 
 using the modified SCCS function with parameters 
 rhomax                     =      0.0050000 
 rhomin                     =      0.0001000 
 volume of the QM region    =    405.6533606 
 surface of the QM region   =     62.2572671 

%%%% DIELECTRIC %%%%%%%%%%%%%%%%%%%%%%%%%%%%%%%%%%%%%%%%%%%%%%%%%%%%%%%%%%%%%%%%%
 dielectric build on homogeneous background
 environment bulk permitt.  =     80.0000000 
 dielectric flags
 need gradient              =  F 
 need factor depend. sqrt   =  F 
 total dielectric charge    =     -0.0004349

%%%% DENSITY %%%%%%%%%%%%%%%%%%%%%%%%%%%%%%%%%%%%%%%%%%%%%%%%%%%%%%%%%%%%%%%%%%%
 density label              = vreference                                                                      
 integral of density        =     0.4978222064E-11

%%%% COMPUTE ELECTROSTATIC POTENTIAL %%%%%%%%%%%%%%%%%%%%%%%%%%%%%%%%%%%%%%%%%%%
 Starting from polarization: rhoiter =      0.086008 jellium =      0.000000
 Iteration #          1
 calling poisson_gradient_direct
 finished poisson_gradient_direct
 finished scalar product environ gradient
 delta_qm =   0.378370E-04 delta_en =   0.742161E-03 tol =   0.100000E-10
 Iteration #          2
 calling poisson_gradient_direct
 finished poisson_gradient_direct
 finished scalar product environ gradient
 delta_qm =   0.299070E-04 delta_en =   0.463673E-03 tol =   0.100000E-10
 Iteration #          3
 calling poisson_gradient_direct
 finished poisson_gradient_direct
 finished scalar product environ gradient
 delta_qm =   0.150432E-04 delta_en =   0.117314E-03 tol =   0.100000E-10
 Iteration #          4
 calling poisson_gradient_direct
 finished poisson_gradient_direct
 finished scalar product environ gradient
 delta_qm =   0.839551E-05 delta_en =   0.365392E-04 tol =   0.100000E-10
 Iteration #          5
 calling poisson_gradient_direct
 finished poisson_gradient_direct
 finished scalar product environ gradient
 delta_qm =   0.409155E-05 delta_en =   0.867842E-05 tol =   0.100000E-10
 Iteration #          6
 calling poisson_gradient_direct
 finished poisson_gradient_direct
 finished scalar product environ gradient
 delta_qm =   0.248110E-05 delta_en =   0.319119E-05 tol =   0.100000E-10
 Iteration #          7
 calling poisson_gradient_direct
 finished poisson_gradient_direct
 finished scalar product environ gradient
 delta_qm =   0.139822E-05 delta_en =   0.101348E-05 tol =   0.100000E-10
 Iteration #          8
 calling poisson_gradient_direct
 finished poisson_gradient_direct
 finished scalar product environ gradient
 delta_qm =   0.798495E-06 delta_en =   0.330529E-06 tol =   0.100000E-10
 Iteration #          9
 calling poisson_gradient_direct
 finished poisson_gradient_direct
 finished scalar product environ gradient
 delta_qm =   0.534570E-06 delta_en =   0.148141E-06 tol =   0.100000E-10
 Iteration #         10
 calling poisson_gradient_direct
 finished poisson_gradient_direct
 finished scalar product environ gradient
 delta_qm =   0.391836E-06 delta_en =   0.795927E-07 tol =   0.100000E-10
 Iteration #         11
 calling poisson_gradient_direct
 finished poisson_gradient_direct
 finished scalar product environ gradient
 delta_qm =   0.299014E-06 delta_en =   0.463499E-07 tol =   0.100000E-10
 Iteration #         12
 calling poisson_gradient_direct
 finished poisson_gradient_direct
 finished scalar product environ gradient
 delta_qm =   0.236687E-06 delta_en =   0.290411E-07 tol =   0.100000E-10
 Iteration #         13
 calling poisson_gradient_direct
 finished poisson_gradient_direct
 finished scalar product environ gradient
 delta_qm =   0.191056E-06 delta_en =   0.189228E-07 tol =   0.100000E-10
 Iteration #         14
 calling poisson_gradient_direct
 finished poisson_gradient_direct
 finished scalar product environ gradient
 delta_qm =   0.154300E-06 delta_en =   0.123423E-07 tol =   0.100000E-10
 Iteration #         15
 calling poisson_gradient_direct
 finished poisson_gradient_direct
 finished scalar product environ gradient
 delta_qm =   0.123677E-06 delta_en =   0.792941E-08 tol =   0.100000E-10
 Iteration #         16
 calling poisson_gradient_direct
 finished poisson_gradient_direct
 finished scalar product environ gradient
 delta_qm =   0.979256E-07 delta_en =   0.497115E-08 tol =   0.100000E-10
 Iteration #         17
 calling poisson_gradient_direct
 finished poisson_gradient_direct
 finished scalar product environ gradient
 delta_qm =   0.769540E-07 delta_en =   0.306992E-08 tol =   0.100000E-10
 Iteration #         18
 calling poisson_gradient_direct
 finished poisson_gradient_direct
 finished scalar product environ gradient
 delta_qm =   0.598252E-07 delta_en =   0.185538E-08 tol =   0.100000E-10
 Iteration #         19
 calling poisson_gradient_direct
 finished poisson_gradient_direct
 finished scalar product environ gradient
 delta_qm =   0.460955E-07 delta_en =   0.110149E-08 tol =   0.100000E-10
 Iteration #         20
 calling poisson_gradient_direct
 finished poisson_gradient_direct
 finished scalar product environ gradient
 delta_qm =   0.351454E-07 delta_en =   0.640328E-09 tol =   0.100000E-10
 Iteration #         21
 calling poisson_gradient_direct
 finished poisson_gradient_direct
 finished scalar product environ gradient
 delta_qm =   0.265446E-07 delta_en =   0.365273E-09 tol =   0.100000E-10
 Iteration #         22
 calling poisson_gradient_direct
 finished poisson_gradient_direct
 finished scalar product environ gradient
 delta_qm =   0.199834E-07 delta_en =   0.207016E-09 tol =   0.100000E-10
 Iteration #         23
 calling poisson_gradient_direct
 finished poisson_gradient_direct
 finished scalar product environ gradient
 delta_qm =   0.149363E-07 delta_en =   0.115651E-09 tol =   0.100000E-10
 Iteration #         24
 calling poisson_gradient_direct
 finished poisson_gradient_direct
 finished scalar product environ gradient
 delta_qm =   0.108381E-07 delta_en =   0.608939E-10 tol =   0.100000E-10
 Iteration #         25
 calling poisson_gradient_direct
 finished poisson_gradient_direct
 finished scalar product environ gradient
 delta_qm =   0.781575E-08 delta_en =   0.316670E-10 tol =   0.100000E-10
 Iteration #         26
 calling poisson_gradient_direct
 finished poisson_gradient_direct
 finished scalar product environ gradient
 delta_qm =   0.561819E-08 delta_en =   0.163628E-10 tol =   0.100000E-10
 Iteration #         27
 calling poisson_gradient_direct
 finished poisson_gradient_direct
 finished scalar product environ gradient
 delta_qm =   0.432767E-08 delta_en =   0.970896E-11 tol =   0.100000E-10
 Charges are converged, EXIT

%%%% DENSITY %%%%%%%%%%%%%%%%%%%%%%%%%%%%%%%%%%%%%%%%%%%%%%%%%%%%%%%%%%%%%%%%%%%
 density label              = velectrostatic                                                                  
 integral of density        =     -221.6187041    

%%%% CHARGES %%%%%%%%%%%%%%%%%%%%%%%%%%%%%%%%%%%%%%%%%%%%%%%%%%%%%%%%%%%%%%%%%%%
 total number of charges    =         24
 total charge               =      0.0000000

%%%% DENSITY %%%%%%%%%%%%%%%%%%%%%%%%%%%%%%%%%%%%%%%%%%%%%%%%%%%%%%%%%%%%%%%%%%%
 density label              = vsoftcavity                                                                     
 integral of density        =      1.127851872    

%%%% DENSITY %%%%%%%%%%%%%%%%%%%%%%%%%%%%%%%%%%%%%%%%%%%%%%%%%%%%%%%%%%%%%%%%%%%
 density label              = dvtot                                                                           
 integral of density        =     -220.4908522    

%%%% ELECTRONS %%%%%%%%%%%%%%%%%%%%%%%%%%%%%%%%%%%%%%%%%%%%%%%%%%%%%%%%%%%%%%%%%
 number of electrons        =         22
 total electronic charge    =     22.0000000

%%%% ELECTRONS %%%%%%%%%%%%%%%%%%%%%%%%%%%%%%%%%%%%%%%%%%%%%%%%%%%%%%%%%%%%%%%%%
 number of electrons        =         22
 total electronic charge    =     22.0000000

%%%% BOUNDARY %%%%%%%%%%%%%%%%%%%%%%%%%%%%%%%%%%%%%%%%%%%%%%%%%%%%%%%%%%%%%%%%%%
 boundary label             = solvent              
 boundary mode              = electronic           
 boundary is built as a function of a smooth density
 function type              =  2 
 using the modified SCCS function with parameters 
 rhomax                     =      0.0050000 
 rhomin                     =      0.0001000 
 volume of the QM region    =    404.3795711 
 surface of the QM region   =     62.2905005 

%%%% DIELECTRIC %%%%%%%%%%%%%%%%%%%%%%%%%%%%%%%%%%%%%%%%%%%%%%%%%%%%%%%%%%%%%%%%%
 dielectric build on homogeneous background
 environment bulk permitt.  =     80.0000000 
 dielectric flags
 need gradient              =  F 
 need factor depend. sqrt   =  F 
 total dielectric charge    =      0.0000036

%%%% DENSITY %%%%%%%%%%%%%%%%%%%%%%%%%%%%%%%%%%%%%%%%%%%%%%%%%%%%%%%%%%%%%%%%%%%
 density label              = vreference                                                                      
 integral of density        =     0.6116213932E-12

%%%% COMPUTE ELECTROSTATIC POTENTIAL %%%%%%%%%%%%%%%%%%%%%%%%%%%%%%%%%%%%%%%%%%%
 Starting from polarization: rhoiter =      0.086053 jellium =      0.000000
 Iteration #          1
 calling poisson_gradient_direct
 finished poisson_gradient_direct
 finished scalar product environ gradient
 delta_qm =   0.841409E-05 delta_en =   0.367011E-04 tol =   0.100000E-10
 Iteration #          2
 calling poisson_gradient_direct
 finished poisson_gradient_direct
 finished scalar product environ gradient
 delta_qm =   0.629149E-05 delta_en =   0.205197E-04 tol =   0.100000E-10
 Iteration #          3
 calling poisson_gradient_direct
 finished poisson_gradient_direct
 finished scalar product environ gradient
 delta_qm =   0.375285E-05 delta_en =   0.730108E-05 tol =   0.100000E-10
 Iteration #          4
 calling poisson_gradient_direct
 finished poisson_gradient_direct
 finished scalar product environ gradient
 delta_qm =   0.197045E-05 delta_en =   0.201279E-05 tol =   0.100000E-10
 Iteration #          5
 calling poisson_gradient_direct
 finished poisson_gradient_direct
 finished scalar product environ gradient
 delta_qm =   0.975428E-06 delta_en =   0.493237E-06 tol =   0.100000E-10
 Iteration #          6
 calling poisson_gradient_direct
 finished poisson_gradient_direct
 finished scalar product environ gradient
 delta_qm =   0.591567E-06 delta_en =   0.181415E-06 tol =   0.100000E-10
 Iteration #          7
 calling poisson_gradient_direct
 finished poisson_gradient_direct
 finished scalar product environ gradient
 delta_qm =   0.340588E-06 delta_en =   0.601346E-07 tol =   0.100000E-10
 Iteration #          8
 calling poisson_gradient_direct
 finished poisson_gradient_direct
 finished scalar product environ gradient
 delta_qm =   0.219110E-06 delta_en =   0.248880E-07 tol =   0.100000E-10
 Iteration #          9
 calling poisson_gradient_direct
 finished poisson_gradient_direct
 finished scalar product environ gradient
 delta_qm =   0.171386E-06 delta_en =   0.152270E-07 tol =   0.100000E-10
 Iteration #         10
 calling poisson_gradient_direct
 finished poisson_gradient_direct
 finished scalar product environ gradient
 delta_qm =   0.143616E-06 delta_en =   0.106923E-07 tol =   0.100000E-10
 Iteration #         11
 calling poisson_gradient_direct
 finished poisson_gradient_direct
 finished scalar product environ gradient
 delta_qm =   0.121805E-06 delta_en =   0.769120E-08 tol =   0.100000E-10
 Iteration #         12
 calling poisson_gradient_direct
 finished poisson_gradient_direct
 finished scalar product environ gradient
 delta_qm =   0.103147E-06 delta_en =   0.551543E-08 tol =   0.100000E-10
 Iteration #         13
 calling poisson_gradient_direct
 finished poisson_gradient_direct
 finished scalar product environ gradient
 delta_qm =   0.864592E-07 delta_en =   0.387514E-08 tol =   0.100000E-10
 Iteration #         14
 calling poisson_gradient_direct
 finished poisson_gradient_direct
 finished scalar product environ gradient
 delta_qm =   0.714373E-07 delta_en =   0.264555E-08 tol =   0.100000E-10
 Iteration #         15
 calling poisson_gradient_direct
 finished poisson_gradient_direct
 finished scalar product environ gradient
 delta_qm =   0.582409E-07 delta_en =   0.175841E-08 tol =   0.100000E-10
 Iteration #         16
 calling poisson_gradient_direct
 finished poisson_gradient_direct
 finished scalar product environ gradient
 delta_qm =   0.467110E-07 delta_en =   0.113110E-08 tol =   0.100000E-10
 Iteration #         17
 calling poisson_gradient_direct
 finished poisson_gradient_direct
 finished scalar product environ gradient
 delta_qm =   0.370082E-07 delta_en =   0.710006E-09 tol =   0.100000E-10
 Iteration #         18
 calling poisson_gradient_direct
 finished poisson_gradient_direct
 finished scalar product environ gradient
 delta_qm =   0.290173E-07 delta_en =   0.436496E-09 tol =   0.100000E-10
 Iteration #         19
 calling poisson_gradient_direct
 finished poisson_gradient_direct
 finished scalar product environ gradient
 delta_qm =   0.225499E-07 delta_en =   0.263604E-09 tol =   0.100000E-10
 Iteration #         20
 calling poisson_gradient_direct
 finished poisson_gradient_direct
 finished scalar product environ gradient
 delta_qm =   0.172891E-07 delta_en =   0.154956E-09 tol =   0.100000E-10
 Iteration #         21
 calling poisson_gradient_direct
 finished poisson_gradient_direct
 finished scalar product environ gradient
 delta_qm =   0.131346E-07 delta_en =   0.894332E-10 tol =   0.100000E-10
 Iteration #         22
 calling poisson_gradient_direct
 finished poisson_gradient_direct
 finished scalar product environ gradient
 delta_qm =   0.987476E-08 delta_en =   0.505497E-10 tol =   0.100000E-10
 Iteration #         23
 calling poisson_gradient_direct
 finished poisson_gradient_direct
 finished scalar product environ gradient
 delta_qm =   0.722718E-08 delta_en =   0.270771E-10 tol =   0.100000E-10
 Iteration #         24
 calling poisson_gradient_direct
 finished poisson_gradient_direct
 finished scalar product environ gradient
 delta_qm =   0.533989E-08 delta_en =   0.147819E-10 tol =   0.100000E-10
 Iteration #         25
 calling poisson_gradient_direct
 finished poisson_gradient_direct
 finished scalar product environ gradient
 delta_qm =   0.396722E-08 delta_en =   0.815903E-11 tol =   0.100000E-10
 Charges are converged, EXIT

%%%% DENSITY %%%%%%%%%%%%%%%%%%%%%%%%%%%%%%%%%%%%%%%%%%%%%%%%%%%%%%%%%%%%%%%%%%%
 density label              = velectrostatic                                                                  
 integral of density        =     -220.6605045    

%%%% CHARGES %%%%%%%%%%%%%%%%%%%%%%%%%%%%%%%%%%%%%%%%%%%%%%%%%%%%%%%%%%%%%%%%%%%
 total number of charges    =         24
 total charge               =      0.0000000

%%%% DENSITY %%%%%%%%%%%%%%%%%%%%%%%%%%%%%%%%%%%%%%%%%%%%%%%%%%%%%%%%%%%%%%%%%%%
 density label              = vsoftcavity                                                                     
 integral of density        =      1.132029322    

%%%% DENSITY %%%%%%%%%%%%%%%%%%%%%%%%%%%%%%%%%%%%%%%%%%%%%%%%%%%%%%%%%%%%%%%%%%%
 density label              = dvtot                                                                           
 integral of density        =     -219.5284751    

%%%% ELECTRONS %%%%%%%%%%%%%%%%%%%%%%%%%%%%%%%%%%%%%%%%%%%%%%%%%%%%%%%%%%%%%%%%%
 number of electrons        =         22
 total electronic charge    =     22.0000000

%%%% ELECTRONS %%%%%%%%%%%%%%%%%%%%%%%%%%%%%%%%%%%%%%%%%%%%%%%%%%%%%%%%%%%%%%%%%
 number of electrons        =         22
 total electronic charge    =     22.0000000

%%%% BOUNDARY %%%%%%%%%%%%%%%%%%%%%%%%%%%%%%%%%%%%%%%%%%%%%%%%%%%%%%%%%%%%%%%%%%
 boundary label             = solvent              
 boundary mode              = electronic           
 boundary is built as a function of a smooth density
 function type              =  2 
 using the modified SCCS function with parameters 
 rhomax                     =      0.0050000 
 rhomin                     =      0.0001000 
 volume of the QM region    =    400.7366895 
 surface of the QM region   =     62.3565025 

%%%% DIELECTRIC %%%%%%%%%%%%%%%%%%%%%%%%%%%%%%%%%%%%%%%%%%%%%%%%%%%%%%%%%%%%%%%%%
 dielectric build on homogeneous background
 environment bulk permitt.  =     80.0000000 
 dielectric flags
 need gradient              =  F 
 need factor depend. sqrt   =  F 
 total dielectric charge    =     -0.0000029

%%%% DENSITY %%%%%%%%%%%%%%%%%%%%%%%%%%%%%%%%%%%%%%%%%%%%%%%%%%%%%%%%%%%%%%%%%%%
 density label              = vreference                                                                      
 integral of density        =    -0.1305852295E-10

%%%% COMPUTE ELECTROSTATIC POTENTIAL %%%%%%%%%%%%%%%%%%%%%%%%%%%%%%%%%%%%%%%%%%%
 Starting from polarization: rhoiter =      0.085728 jellium =      0.000000
 Iteration #          1
 calling poisson_gradient_direct
 finished poisson_gradient_direct
 finished scalar product environ gradient
 delta_qm =   0.361790E-04 delta_en =   0.678546E-03 tol =   0.100000E-10
 Iteration #          2
 calling poisson_gradient_direct
 finished poisson_gradient_direct
 finished scalar product environ gradient
 delta_qm =   0.253823E-04 delta_en =   0.333986E-03 tol =   0.100000E-10
 Iteration #          3
 calling poisson_gradient_direct
 finished poisson_gradient_direct
 finished scalar product environ gradient
 delta_qm =   0.140140E-04 delta_en =   0.101809E-03 tol =   0.100000E-10
 Iteration #          4
 calling poisson_gradient_direct
 finished poisson_gradient_direct
 finished scalar product environ gradient
 delta_qm =   0.762195E-05 delta_en =   0.301160E-04 tol =   0.100000E-10
 Iteration #          5
 calling poisson_gradient_direct
 finished poisson_gradient_direct
 finished scalar product environ gradient
 delta_qm =   0.389097E-05 delta_en =   0.784838E-05 tol =   0.100000E-10
 Iteration #          6
 calling poisson_gradient_direct
 finished poisson_gradient_direct
 finished scalar product environ gradient
 delta_qm =   0.234848E-05 delta_en =   0.285917E-05 tol =   0.100000E-10
 Iteration #          7
 calling poisson_gradient_direct
 finished poisson_gradient_direct
 finished scalar product environ gradient
 delta_qm =   0.129137E-05 delta_en =   0.864501E-06 tol =   0.100000E-10
 Iteration #          8
 calling poisson_gradient_direct
 finished poisson_gradient_direct
 finished scalar product environ gradient
 delta_qm =   0.703166E-06 delta_en =   0.256319E-06 tol =   0.100000E-10
 Iteration #          9
 calling poisson_gradient_direct
 finished poisson_gradient_direct
 finished scalar product environ gradient
 delta_qm =   0.421936E-06 delta_en =   0.922908E-07 tol =   0.100000E-10
 Iteration #         10
 calling poisson_gradient_direct
 finished poisson_gradient_direct
 finished scalar product environ gradient
 delta_qm =   0.257023E-06 delta_en =   0.342459E-07 tol =   0.100000E-10
 Iteration #         11
 calling poisson_gradient_direct
 finished poisson_gradient_direct
 finished scalar product environ gradient
 delta_qm =   0.151627E-06 delta_en =   0.119184E-07 tol =   0.100000E-10
 Iteration #         12
 calling poisson_gradient_direct
 finished poisson_gradient_direct
 finished scalar product environ gradient
 delta_qm =   0.916546E-07 delta_en =   0.435485E-08 tol =   0.100000E-10
 Iteration #         13
 calling poisson_gradient_direct
 finished poisson_gradient_direct
 finished scalar product environ gradient
 delta_qm =   0.599582E-07 delta_en =   0.186364E-08 tol =   0.100000E-10
 Iteration #         14
 calling poisson_gradient_direct
 finished poisson_gradient_direct
 finished scalar product environ gradient
 delta_qm =   0.415985E-07 delta_en =   0.897057E-09 tol =   0.100000E-10
 Iteration #         15
 calling poisson_gradient_direct
 finished poisson_gradient_direct
 finished scalar product environ gradient
 delta_qm =   0.294580E-07 delta_en =   0.449854E-09 tol =   0.100000E-10
 Iteration #         16
 calling poisson_gradient_direct
 finished poisson_gradient_direct
 finished scalar product environ gradient
 delta_qm =   0.210235E-07 delta_en =   0.229126E-09 tol =   0.100000E-10
 Iteration #         17
 calling poisson_gradient_direct
 finished poisson_gradient_direct
 finished scalar product environ gradient
 delta_qm =   0.158395E-07 delta_en =   0.130061E-09 tol =   0.100000E-10
 Iteration #         18
 calling poisson_gradient_direct
 finished poisson_gradient_direct
 finished scalar product environ gradient
 delta_qm =   0.118664E-07 delta_en =   0.729972E-10 tol =   0.100000E-10
 Iteration #         19
 calling poisson_gradient_direct
 finished poisson_gradient_direct
 finished scalar product environ gradient
 delta_qm =   0.908872E-08 delta_en =   0.428223E-10 tol =   0.100000E-10
 Iteration #         20
 calling poisson_gradient_direct
 finished poisson_gradient_direct
 finished scalar product environ gradient
 delta_qm =   0.706727E-08 delta_en =   0.258921E-10 tol =   0.100000E-10
 Iteration #         21
 calling poisson_gradient_direct
 finished poisson_gradient_direct
 finished scalar product environ gradient
 delta_qm =   0.533181E-08 delta_en =   0.147372E-10 tol =   0.100000E-10
 Iteration #         22
 calling poisson_gradient_direct
 finished poisson_gradient_direct
 finished scalar product environ gradient
 delta_qm =   0.409361E-08 delta_en =   0.868718E-11 tol =   0.100000E-10
 Charges are converged, EXIT

%%%% DENSITY %%%%%%%%%%%%%%%%%%%%%%%%%%%%%%%%%%%%%%%%%%%%%%%%%%%%%%%%%%%%%%%%%%%
 density label              = velectrostatic                                                                  
 integral of density        =     -215.2731070    

%%%% CHARGES %%%%%%%%%%%%%%%%%%%%%%%%%%%%%%%%%%%%%%%%%%%%%%%%%%%%%%%%%%%%%%%%%%%
 total number of charges    =         24
 total charge               =      0.0000000

%%%% DENSITY %%%%%%%%%%%%%%%%%%%%%%%%%%%%%%%%%%%%%%%%%%%%%%%%%%%%%%%%%%%%%%%%%%%
 density label              = vsoftcavity                                                                     
 integral of density        =      1.229750383    

%%%% DENSITY %%%%%%%%%%%%%%%%%%%%%%%%%%%%%%%%%%%%%%%%%%%%%%%%%%%%%%%%%%%%%%%%%%%
 density label              = dvtot                                                                           
 integral of density        =     -214.0433566    

%%%% ELECTRONS %%%%%%%%%%%%%%%%%%%%%%%%%%%%%%%%%%%%%%%%%%%%%%%%%%%%%%%%%%%%%%%%%
 number of electrons        =         22
 total electronic charge    =     22.0000000

%%%% ELECTRONS %%%%%%%%%%%%%%%%%%%%%%%%%%%%%%%%%%%%%%%%%%%%%%%%%%%%%%%%%%%%%%%%%
 number of electrons        =         22
 total electronic charge    =     22.0000000

%%%% BOUNDARY %%%%%%%%%%%%%%%%%%%%%%%%%%%%%%%%%%%%%%%%%%%%%%%%%%%%%%%%%%%%%%%%%%
 boundary label             = solvent              
 boundary mode              = electronic           
 boundary is built as a function of a smooth density
 function type              =  2 
 using the modified SCCS function with parameters 
 rhomax                     =      0.0050000 
 rhomin                     =      0.0001000 
 volume of the QM region    =    401.2344159 
 surface of the QM region   =     62.3497760 

%%%% DIELECTRIC %%%%%%%%%%%%%%%%%%%%%%%%%%%%%%%%%%%%%%%%%%%%%%%%%%%%%%%%%%%%%%%%%
 dielectric build on homogeneous background
 environment bulk permitt.  =     80.0000000 
 dielectric flags
 need gradient              =  F 
 need factor depend. sqrt   =  F 
 total dielectric charge    =     -0.0000012

%%%% DENSITY %%%%%%%%%%%%%%%%%%%%%%%%%%%%%%%%%%%%%%%%%%%%%%%%%%%%%%%%%%%%%%%%%%%
 density label              = vreference                                                                      
 integral of density        =     0.1647720090E-11

%%%% COMPUTE ELECTROSTATIC POTENTIAL %%%%%%%%%%%%%%%%%%%%%%%%%%%%%%%%%%%%%%%%%%%
[...]
 Iteration #          9
 calling poisson_gradient_direct
 finished poisson_gradient_direct
 finished scalar product environ gradient
 delta_qm =   0.699309E-07 delta_en =   0.253515E-08 tol =   0.100000E-10
 Iteration #         10
 calling poisson_gradient_direct
 finished poisson_gradient_direct
 finished scalar product environ gradient
 delta_qm =   0.424332E-07 delta_en =   0.933420E-09 tol =   0.100000E-10
 Iteration #         11
 calling poisson_gradient_direct
 finished poisson_gradient_direct
 finished scalar product environ gradient
 delta_qm =   0.242672E-07 delta_en =   0.305283E-09 tol =   0.100000E-10
 Iteration #         12
 calling poisson_gradient_direct
 finished poisson_gradient_direct
 finished scalar product environ gradient
 delta_qm =   0.143107E-07 delta_en =   0.106167E-09 tol =   0.100000E-10
 Iteration #         13
 calling poisson_gradient_direct
 finished poisson_gradient_direct
 finished scalar product environ gradient
 delta_qm =   0.907030E-08 delta_en =   0.426490E-10 tol =   0.100000E-10
 Iteration #         14
 calling poisson_gradient_direct
 finished poisson_gradient_direct
 finished scalar product environ gradient
 delta_qm =   0.576150E-08 delta_en =   0.172082E-10 tol =   0.100000E-10
 Iteration #         15
 calling poisson_gradient_direct
 finished poisson_gradient_direct
 finished scalar product environ gradient
 delta_qm =   0.386177E-08 delta_en =   0.773103E-11 tol =   0.100000E-10
 Charges are converged, EXIT

%%%% DENSITY %%%%%%%%%%%%%%%%%%%%%%%%%%%%%%%%%%%%%%%%%%%%%%%%%%%%%%%%%%%%%%%%%%%
 density label              = velectrostatic                                                                  
 integral of density        =     -215.5166073    

%%%% CHARGES %%%%%%%%%%%%%%%%%%%%%%%%%%%%%%%%%%%%%%%%%%%%%%%%%%%%%%%%%%%%%%%%%%%
 total number of charges    =         24
 total charge               =     -0.0000000

%%%% DENSITY %%%%%%%%%%%%%%%%%%%%%%%%%%%%%%%%%%%%%%%%%%%%%%%%%%%%%%%%%%%%%%%%%%%
 density label              = vsoftcavity                                                                     
 integral of density        =      1.233605088    

%%%% DENSITY %%%%%%%%%%%%%%%%%%%%%%%%%%%%%%%%%%%%%%%%%%%%%%%%%%%%%%%%%%%%%%%%%%%
 density label              = dvtot                                                                           
 integral of density        =     -214.2830022    

%%%% ELECTRONS %%%%%%%%%%%%%%%%%%%%%%%%%%%%%%%%%%%%%%%%%%%%%%%%%%%%%%%%%%%%%%%%%
 number of electrons        =         22
 total electronic charge    =     22.0000000

%%%% ELECTRONS %%%%%%%%%%%%%%%%%%%%%%%%%%%%%%%%%%%%%%%%%%%%%%%%%%%%%%%%%%%%%%%%%
 number of electrons        =         22
 total electronic charge    =     22.0000000

%%%% BOUNDARY %%%%%%%%%%%%%%%%%%%%%%%%%%%%%%%%%%%%%%%%%%%%%%%%%%%%%%%%%%%%%%%%%%
 boundary label             = solvent              
 boundary mode              = electronic           
 boundary is built as a function of a smooth density
 function type              =  2 
 using the modified SCCS function with parameters 
 rhomax                     =      0.0050000 
 rhomin                     =      0.0001000 
 volume of the QM region    =    402.6835505 
 surface of the QM region   =     62.3163636 

%%%% DIELECTRIC %%%%%%%%%%%%%%%%%%%%%%%%%%%%%%%%%%%%%%%%%%%%%%%%%%%%%%%%%%%%%%%%%
 dielectric build on homogeneous background
 environment bulk permitt.  =     80.0000000 
 dielectric flags
 need gradient              =  F 
 need factor depend. sqrt   =  F 
 total dielectric charge    =      0.0000001

%%%% DENSITY %%%%%%%%%%%%%%%%%%%%%%%%%%%%%%%%%%%%%%%%%%%%%%%%%%%%%%%%%%%%%%%%%%%
 density label              = vreference                                                                      
 integral of density        =     0.1830693952E-11

%%%% COMPUTE ELECTROSTATIC POTENTIAL %%%%%%%%%%%%%%%%%%%%%%%%%%%%%%%%%%%%%%%%%%%
 Starting from polarization: rhoiter =      0.086662 jellium =      0.000000
 Iteration #          1
 calling poisson_gradient_direct
 finished poisson_gradient_direct
 finished scalar product environ gradient
 delta_qm =   0.268586E-06 delta_en =   0.373965E-07 tol =   0.100000E-10
 Iteration #          2
 calling poisson_gradient_direct
 finished poisson_gradient_direct
 finished scalar product environ gradient
 delta_qm =   0.165966E-06 delta_en =   0.142791E-07 tol =   0.100000E-10
 Iteration #          3
 calling poisson_gradient_direct
 finished poisson_gradient_direct
 finished scalar product environ gradient
 delta_qm =   0.981247E-07 delta_en =   0.499139E-08 tol =   0.100000E-10
 Iteration #          4
 calling poisson_gradient_direct
 finished poisson_gradient_direct
 finished scalar product environ gradient
 delta_qm =   0.532395E-07 delta_en =   0.146937E-08 tol =   0.100000E-10
 Iteration #          5
 calling poisson_gradient_direct
 finished poisson_gradient_direct
 finished scalar product environ gradient
 delta_qm =   0.293612E-07 delta_en =   0.446902E-09 tol =   0.100000E-10
 Iteration #          6
 calling poisson_gradient_direct
 finished poisson_gradient_direct
 finished scalar product environ gradient
 delta_qm =   0.200390E-07 delta_en =   0.208169E-09 tol =   0.100000E-10
 Iteration #          7
 calling poisson_gradient_direct
 finished poisson_gradient_direct
 finished scalar product environ gradient
 delta_qm =   0.151613E-07 delta_en =   0.119162E-09 tol =   0.100000E-10
 Iteration #          8
 calling poisson_gradient_direct
 finished poisson_gradient_direct
 finished scalar product environ gradient
 delta_qm =   0.131012E-07 delta_en =   0.889785E-10 tol =   0.100000E-10
 Iteration #          9
 calling poisson_gradient_direct
 finished poisson_gradient_direct
 finished scalar product environ gradient
 delta_qm =   0.115451E-07 delta_en =   0.690976E-10 tol =   0.100000E-10
 Iteration #         10
 calling poisson_gradient_direct
 finished poisson_gradient_direct
 finished scalar product environ gradient
 delta_qm =   0.102838E-07 delta_en =   0.548244E-10 tol =   0.100000E-10
 Iteration #         11
 calling poisson_gradient_direct
 finished poisson_gradient_direct
 finished scalar product environ gradient
 delta_qm =   0.887806E-08 delta_en =   0.408603E-10 tol =   0.100000E-10
 Iteration #         12
 calling poisson_gradient_direct
 finished poisson_gradient_direct
 finished scalar product environ gradient
 delta_qm =   0.754481E-08 delta_en =   0.295095E-10 tol =   0.100000E-10
 Iteration #         13
 calling poisson_gradient_direct
 finished poisson_gradient_direct
 finished scalar product environ gradient
 delta_qm =   0.632090E-08 delta_en =   0.207120E-10 tol =   0.100000E-10
 Iteration #         14
 calling poisson_gradient_direct
 finished poisson_gradient_direct
 finished scalar product environ gradient
 delta_qm =   0.514795E-08 delta_en =   0.137383E-10 tol =   0.100000E-10
 Iteration #         15
 calling poisson_gradient_direct
 finished poisson_gradient_direct
 finished scalar product environ gradient
 delta_qm =   0.412634E-08 delta_en =   0.882663E-11 tol =   0.100000E-10
 Charges are converged, EXIT

%%%% DENSITY %%%%%%%%%%%%%%%%%%%%%%%%%%%%%%%%%%%%%%%%%%%%%%%%%%%%%%%%%%%%%%%%%%%
 density label              = velectrostatic                                                                  
 integral of density        =     -215.4866369    

%%%% CHARGES %%%%%%%%%%%%%%%%%%%%%%%%%%%%%%%%%%%%%%%%%%%%%%%%%%%%%%%%%%%%%%%%%%%
 total number of charges    =         24
 total charge               =     -0.0000000

%%%% DENSITY %%%%%%%%%%%%%%%%%%%%%%%%%%%%%%%%%%%%%%%%%%%%%%%%%%%%%%%%%%%%%%%%%%%
 density label              = vsoftcavity                                                                     
 integral of density        =      1.233867058    

%%%% DENSITY %%%%%%%%%%%%%%%%%%%%%%%%%%%%%%%%%%%%%%%%%%%%%%%%%%%%%%%%%%%%%%%%%%%
 density label              = dvtot                                                                           
 integral of density        =     -214.2527698    

%%%% ELECTRONS %%%%%%%%%%%%%%%%%%%%%%%%%%%%%%%%%%%%%%%%%%%%%%%%%%%%%%%%%%%%%%%%%
 number of electrons        =         22
 total electronic charge    =     22.0000000

%%%% ELECTRONS %%%%%%%%%%%%%%%%%%%%%%%%%%%%%%%%%%%%%%%%%%%%%%%%%%%%%%%%%%%%%%%%%
 number of electrons        =         22
 total electronic charge    =     22.0000000

%%%% BOUNDARY %%%%%%%%%%%%%%%%%%%%%%%%%%%%%%%%%%%%%%%%%%%%%%%%%%%%%%%%%%%%%%%%%%
 boundary label             = solvent              
 boundary mode              = electronic           
 boundary is built as a function of a smooth density
 function type              =  2 
 using the modified SCCS function with parameters 
 rhomax                     =      0.0050000 
 rhomin                     =      0.0001000 
 volume of the QM region    =    402.7961086 
 surface of the QM region   =     62.3138244 

%%%% DIELECTRIC %%%%%%%%%%%%%%%%%%%%%%%%%%%%%%%%%%%%%%%%%%%%%%%%%%%%%%%%%%%%%%%%%
 dielectric build on homogeneous background
 environment bulk permitt.  =     80.0000000 
 dielectric flags
 need gradient              =  F 
 need factor depend. sqrt   =  F 
 total dielectric charge    =     -0.0000008

%%%% DENSITY %%%%%%%%%%%%%%%%%%%%%%%%%%%%%%%%%%%%%%%%%%%%%%%%%%%%%%%%%%%%%%%%%%%
 density label              = vreference                                                                      
 integral of density        =     0.2975658170E-12

%%%% COMPUTE ELECTROSTATIC POTENTIAL %%%%%%%%%%%%%%%%%%%%%%%%%%%%%%%%%%%%%%%%%%%
 Starting from polarization: rhoiter =      0.086653 jellium =      0.000000
 Iteration #          1
 calling poisson_gradient_direct
 finished poisson_gradient_direct
 finished scalar product environ gradient
 delta_qm =   0.793475E-06 delta_en =   0.326386E-06 tol =   0.100000E-10
 Iteration #          2
 calling poisson_gradient_direct
 finished poisson_gradient_direct
 finished scalar product environ gradient
 delta_qm =   0.380653E-06 delta_en =   0.751144E-07 tol =   0.100000E-10
 Iteration #          3
 calling poisson_gradient_direct
 finished poisson_gradient_direct
 finished scalar product environ gradient
 delta_qm =   0.227789E-06 delta_en =   0.268985E-07 tol =   0.100000E-10
 Iteration #          4
 calling poisson_gradient_direct
 finished poisson_gradient_direct
 finished scalar product environ gradient
 delta_qm =   0.119846E-06 delta_en =   0.744584E-08 tol =   0.100000E-10
 Iteration #          5
 calling poisson_gradient_direct
 finished poisson_gradient_direct
 finished scalar product environ gradient
 delta_qm =   0.742851E-07 delta_en =   0.286068E-08 tol =   0.100000E-10
 Iteration #          6
 calling poisson_gradient_direct
 finished poisson_gradient_direct
 finished scalar product environ gradient
 delta_qm =   0.437771E-07 delta_en =   0.993478E-09 tol =   0.100000E-10
 Iteration #          7
 calling poisson_gradient_direct
 finished poisson_gradient_direct
 finished scalar product environ gradient
 delta_qm =   0.250472E-07 delta_en =   0.325225E-09 tol =   0.100000E-10
 Iteration #          8
 calling poisson_gradient_direct
 finished poisson_gradient_direct
 finished scalar product environ gradient
 delta_qm =   0.154345E-07 delta_en =   0.123495E-09 tol =   0.100000E-10
 Iteration #          9
 calling poisson_gradient_direct
 finished poisson_gradient_direct
 finished scalar product environ gradient
 delta_qm =   0.101184E-07 delta_en =   0.530751E-10 tol =   0.100000E-10
 Iteration #         10
 calling poisson_gradient_direct
 finished poisson_gradient_direct
 finished scalar product environ gradient
 delta_qm =   0.686283E-08 delta_en =   0.244158E-10 tol =   0.100000E-10
 Iteration #         11
 calling poisson_gradient_direct
 finished poisson_gradient_direct
 finished scalar product environ gradient
 delta_qm =   0.484334E-08 delta_en =   0.121606E-10 tol =   0.100000E-10
 Iteration #         12
 calling poisson_gradient_direct
 finished poisson_gradient_direct
 finished scalar product environ gradient
 delta_qm =   0.359725E-08 delta_en =   0.670821E-11 tol =   0.100000E-10
 Charges are converged, EXIT

%%%% DENSITY %%%%%%%%%%%%%%%%%%%%%%%%%%%%%%%%%%%%%%%%%%%%%%%%%%%%%%%%%%%%%%%%%%%
 density label              = velectrostatic                                                                  
 integral of density        =     -215.5609614    

%%%% CHARGES %%%%%%%%%%%%%%%%%%%%%%%%%%%%%%%%%%%%%%%%%%%%%%%%%%%%%%%%%%%%%%%%%%%
 total number of charges    =         24
 total charge               =     -0.0000000

%%%% DENSITY %%%%%%%%%%%%%%%%%%%%%%%%%%%%%%%%%%%%%%%%%%%%%%%%%%%%%%%%%%%%%%%%%%%
 density label              = vsoftcavity                                                                     
 integral of density        =      1.232792094    

%%%% DENSITY %%%%%%%%%%%%%%%%%%%%%%%%%%%%%%%%%%%%%%%%%%%%%%%%%%%%%%%%%%%%%%%%%%%
 density label              = dvtot                                                                           
 integral of density        =     -214.3281693    

%%%% ELECTRONS %%%%%%%%%%%%%%%%%%%%%%%%%%%%%%%%%%%%%%%%%%%%%%%%%%%%%%%%%%%%%%%%%
 number of electrons        =         22
 total electronic charge    =     22.0000000

%%%% ELECTRONS %%%%%%%%%%%%%%%%%%%%%%%%%%%%%%%%%%%%%%%%%%%%%%%%%%%%%%%%%%%%%%%%%
 number of electrons        =         22
 total electronic charge    =     22.0000000

%%%% BOUNDARY %%%%%%%%%%%%%%%%%%%%%%%%%%%%%%%%%%%%%%%%%%%%%%%%%%%%%%%%%%%%%%%%%%
 boundary label             = solvent              
 boundary mode              = electronic           
 boundary is built as a function of a smooth density
 function type              =  2 
 using the modified SCCS function with parameters 
 rhomax                     =      0.0050000 
 rhomin                     =      0.0001000 
 volume of the QM region    =    402.8757543 
 surface of the QM region   =     62.3118711 

%%%% DIELECTRIC %%%%%%%%%%%%%%%%%%%%%%%%%%%%%%%%%%%%%%%%%%%%%%%%%%%%%%%%%%%%%%%%%
 dielectric build on homogeneous background
 environment bulk permitt.  =     80.0000000 
 dielectric flags
 need gradient              =  F 
 need factor depend. sqrt   =  F 
 total dielectric charge    =     -0.0000007

%%%% DENSITY %%%%%%%%%%%%%%%%%%%%%%%%%%%%%%%%%%%%%%%%%%%%%%%%%%%%%%%%%%%%%%%%%%%
 density label              = vreference                                                                      
 integral of density        =     0.3204172030E-11

%%%% COMPUTE ELECTROSTATIC POTENTIAL %%%%%%%%%%%%%%%%%%%%%%%%%%%%%%%%%%%%%%%%%%%
 Starting from polarization: rhoiter =      0.086714 jellium =      0.000000
 Iteration #          1
 calling poisson_gradient_direct
 finished poisson_gradient_direct
 finished scalar product environ gradient
 delta_qm =   0.568913E-06 delta_en =   0.167786E-06 tol =   0.100000E-10
 Iteration #          2
 calling poisson_gradient_direct
 finished poisson_gradient_direct
 finished scalar product environ gradient
 delta_qm =   0.273757E-06 delta_en =   0.388504E-07 tol =   0.100000E-10
 Iteration #          3
 calling poisson_gradient_direct
 finished poisson_gradient_direct
 finished scalar product environ gradient
 delta_qm =   0.165301E-06 delta_en =   0.141650E-07 tol =   0.100000E-10
 Iteration #          4
 calling poisson_gradient_direct
 finished poisson_gradient_direct
 finished scalar product environ gradient
 delta_qm =   0.872240E-07 delta_en =   0.394400E-08 tol =   0.100000E-10
 Iteration #          5
 calling poisson_gradient_direct
 finished poisson_gradient_direct
 finished scalar product environ gradient
 delta_qm =   0.535224E-07 delta_en =   0.148504E-08 tol =   0.100000E-10
 Iteration #          6
 calling poisson_gradient_direct
 finished poisson_gradient_direct
 finished scalar product environ gradient
 delta_qm =   0.315117E-07 delta_en =   0.514766E-09 tol =   0.100000E-10
 Iteration #          7
 calling poisson_gradient_direct
 finished poisson_gradient_direct
 finished scalar product environ gradient
 delta_qm =   0.177719E-07 delta_en =   0.163732E-09 tol =   0.100000E-10
 Iteration #          8
 calling poisson_gradient_direct
 finished poisson_gradient_direct
 finished scalar product environ gradient
 delta_qm =   0.109742E-07 delta_en =   0.624321E-10 tol =   0.100000E-10
 Iteration #          9
 calling poisson_gradient_direct
 finished poisson_gradient_direct
 finished scalar product environ gradient
 delta_qm =   0.694317E-08 delta_en =   0.249908E-10 tol =   0.100000E-10
 Iteration #         10
 calling poisson_gradient_direct
 finished poisson_gradient_direct
 finished scalar product environ gradient
 delta_qm =   0.449067E-08 delta_en =   0.104541E-10 tol =   0.100000E-10
 Iteration #         11
 calling poisson_gradient_direct
 finished poisson_gradient_direct
 finished scalar product environ gradient
 delta_qm =   0.321368E-08 delta_en =   0.535390E-11 tol =   0.100000E-10
 Charges are converged, EXIT

%%%% DENSITY %%%%%%%%%%%%%%%%%%%%%%%%%%%%%%%%%%%%%%%%%%%%%%%%%%%%%%%%%%%%%%%%%%%
 density label              = velectrostatic                                                                  
 integral of density        =     -215.6200118    

%%%% CHARGES %%%%%%%%%%%%%%%%%%%%%%%%%%%%%%%%%%%%%%%%%%%%%%%%%%%%%%%%%%%%%%%%%%%
 total number of charges    =         24
 total charge               =     -0.0000000

%%%% DENSITY %%%%%%%%%%%%%%%%%%%%%%%%%%%%%%%%%%%%%%%%%%%%%%%%%%%%%%%%%%%%%%%%%%%
 density label              = vsoftcavity                                                                     
 integral of density        =      1.231984435    

%%%% DENSITY %%%%%%%%%%%%%%%%%%%%%%%%%%%%%%%%%%%%%%%%%%%%%%%%%%%%%%%%%%%%%%%%%%%
 density label              = dvtot                                                                           
 integral of density        =     -214.3880274    

%%%% ELECTRONS %%%%%%%%%%%%%%%%%%%%%%%%%%%%%%%%%%%%%%%%%%%%%%%%%%%%%%%%%%%%%%%%%
 number of electrons        =         22
 total electronic charge    =     22.0000000

%%%% ELECTRONS %%%%%%%%%%%%%%%%%%%%%%%%%%%%%%%%%%%%%%%%%%%%%%%%%%%%%%%%%%%%%%%%%
 number of electrons        =         22
 total electronic charge    =     22.0000000

%%%% BOUNDARY %%%%%%%%%%%%%%%%%%%%%%%%%%%%%%%%%%%%%%%%%%%%%%%%%%%%%%%%%%%%%%%%%%
 boundary label             = solvent              
 boundary mode              = electronic           
 boundary is built as a function of a smooth density
 function type              =  2 
 using the modified SCCS function with parameters 
 rhomax                     =      0.0050000 
 rhomin                     =      0.0001000 
 volume of the QM region    =    402.8757543 
 surface of the QM region   =     62.3118711 

%%%% DIELECTRIC %%%%%%%%%%%%%%%%%%%%%%%%%%%%%%%%%%%%%%%%%%%%%%%%%%%%%%%%%%%%%%%%%
 dielectric build on homogeneous background
 environment bulk permitt.  =     80.0000000 
 dielectric flags
 need gradient              =  F 
 need factor depend. sqrt   =  F 
 total dielectric charge    =     -0.0000011

%%%% DENSITY %%%%%%%%%%%%%%%%%%%%%%%%%%%%%%%%%%%%%%%%%%%%%%%%%%%%%%%%%%%%%%%%%%%
 density label              = dvtot                                                                           
 integral of density        =     -214.3880274    

%%%% DENSITY %%%%%%%%%%%%%%%%%%%%%%%%%%%%%%%%%%%%%%%%%%%%%%%%%%%%%%%%%%%%%%%%%%%
 density label              = vreference                                                                      
 integral of density        =     0.3204172030E-11

%%%% DENSITY %%%%%%%%%%%%%%%%%%%%%%%%%%%%%%%%%%%%%%%%%%%%%%%%%%%%%%%%%%%%%%%%%%%
 density label              = velectrostatic                                                                  
 integral of density        =     -215.6200118    

%%%% CHARGES %%%%%%%%%%%%%%%%%%%%%%%%%%%%%%%%%%%%%%%%%%%%%%%%%%%%%%%%%%%%%%%%%%%
 total number of charges    =         24
 total charge               =     -0.0000000

%%%% DENSITY %%%%%%%%%%%%%%%%%%%%%%%%%%%%%%%%%%%%%%%%%%%%%%%%%%%%%%%%%%%%%%%%%%%
 density label              = vsoftcavity                                                                     
 integral of density        =      1.231984435    
