
     Program PWSCF v.6.7MaX starts on 22Jan2021 at 11:15:14 

     This program is part of the open-source Quantum ESPRESSO suite
     for quantum simulation of materials; please cite
         "P. Giannozzi et al., J. Phys.:Condens. Matter 21 395502 (2009);
         "P. Giannozzi et al., J. Phys.:Condens. Matter 29 465901 (2017);
          URL http://www.quantum-espresso.org", 
     in publications or presentations arising from this work. More details at
     http://www.quantum-espresso.org/quote

     Parallel version (MPI), running on     1 processors

     MPI processes distributed on     1 nodes
     Reading input from pw.in

     Current dimensions of program PWSCF are:
     Max number of different atomic species (ntypx) = 10
     Max number of k-points (npk) =  40000
     Max angular momentum in pseudopotentials (lmaxx) =  3

     Subspace diagonalization in iterative solution of the eigenvalue problem:
     a serial algorithm will be used

     Message from routine setup:
     using ibrav=0 with symmetry is DISCOURAGED, use correct ibrav instead

     G-vector sticks info
     --------------------
     sticks:   dense  smooth     PW     G-vecs:    dense   smooth      PW
     Sum         861     341     89               221431    56001    7059



     bravais-lattice index     =            0
     lattice parameter (alat)  =       5.5435  a.u.
     unit-cell volume          =    2000.1211 (a.u.)^3
     number of atoms/cell      =            2
     number of atomic types    =            1
     number of electrons       =        22.00
     number of Kohn-Sham states=           15
     kinetic-energy cutoff     =      35.0000  Ry
     charge density cutoff     =     350.0000  Ry
     scf convergence threshold =      1.0E-06
     mixing beta               =       0.3000
     number of iterations used =            8  plain     mixing
     Exchange-correlation= PBE
                           (   1   4   3   4   0   0   0)


     Environ Module
     ==============

     Plese cite
         O. Andreussi, I. Dabo and N. Marzari, J. Chem. Phys. 136, 064102 (2012)         
     in publications or presentations arising from this work.

     compensation onset threshold      =               0.1000E+02 
     static permittivity               =                    80.00 
     epsilon calculation mode          =               electronic 

     Electrostatic Setup
     -------------------
     electrostatic problem to solve    = generalized              
     numerical solver adopted          = iterative                
     type of auxiliary density adopted = full                     
     type of core tool for poisson     = fft                      



     celldm(1)=   5.543526  celldm(2)=   0.000000  celldm(3)=   0.000000
     celldm(4)=   0.000000  celldm(5)=   0.000000  celldm(6)=   0.000000

     crystal axes: (cart. coord. in units of alat)
               a(1) = (   1.000000   0.000000   0.000000 )  
               a(2) = (   0.000000   1.000000   0.000000 )  
               a(3) = (   0.000000   0.000000  11.740809 )  

     reciprocal axes: (cart. coord. in units 2 pi/alat)
               b(1) = (  1.000000  0.000000  0.000000 )  
               b(2) = (  0.000000  1.000000  0.000000 )  
               b(3) = (  0.000000  0.000000  0.085173 )  


     PseudoPot. # 1 for Ag read from file:
     /Users/gabrielmedrano/Desktop/q-e/Environ/tests/../..//pseudo/Ag.pbe-n-rrkjus_psl.1.0.0.UPF
     MD5 check sum: d841cbfac2b0861aec33b46768a516bf
     Pseudo is Ultrasoft + core correction, Zval = 11.0
     Generated using &quot;atomic&quot; code by A. Dal Corso  v.6.2.2
     Using radial grid of 1237 points,  6 beta functions with: 
                l(1) =   0
                l(2) =   0
                l(3) =   1
                l(4) =   1
                l(5) =   2
                l(6) =   2
     Q(r) pseudized with 0 coefficients 


     atomic species   valence    mass     pseudopotential
        Ag            11.00   107.86800     Ag( 1.00)

      8 Sym. Ops. (no inversion) found



   Cartesian axes

     site n.     atom                  positions (alat units)
         1           Ag  tau(   1) = (   0.5000000   0.5000000   3.4088881  )
         2           Ag  tau(   2) = (   0.0000000   0.0000000   4.1021437  )

     number of k points=     1  Marzari-Vanderbilt smearing, width (Ry)=  0.0100
                       cart. coord. in units 2pi/alat
        k(    1) = (   0.0000000   0.0000000   0.0000000), wk =   2.0000000

     Dense  grid:   221431 G-vectors     FFT dimensions: (  36,  36, 400)

     Smooth grid:    56001 G-vectors     FFT dimensions: (  24,  24, 250)

     Estimated max dynamical RAM per process >     777.01 MB
     Message from routine generate_erfc                                                                   :
     WARNING: wrong integral of erfc function

     Initial potential from superposition of free atoms

     starting charge   21.99920, renormalised to   22.00000

     negative rho (up, down):  1.367E-04 0.000E+00
     Starting wfcs are   18 randomized atomic wfcs

     total cpu time spent up to now is        2.5 secs

     Self-consistent Calculation

     iteration #  1     ecut=    35.00 Ry     beta= 0.30
     Davidson diagonalization with overlap
     ethr =  1.00E-02,  avg # of iterations = 11.0

     negative rho (up, down):  8.684E-05 0.000E+00

     add environment contribution to local potential
     polarization accuracy = 8.2E-12, # of iterations =  22

     total cpu time spent up to now is        7.3 secs

     total energy              =    -168.81983119 Ry
     estimated scf accuracy    <       0.24699838 Ry
     electrostatic embedding   =       0.00000000 Ry
     electrolyte free energy   =       0.00000678 Ry
     correction to one-el term =      -0.00000000 Ry

     iteration #  2     ecut=    35.00 Ry     beta= 0.30
     Davidson diagonalization with overlap
     ethr =  1.12E-03,  avg # of iterations =  2.0

     negative rho (up, down):  6.797E-05 0.000E+00

     add environment contribution to local potential
     polarization accuracy = 8.3E-12, # of iterations =  21

     total cpu time spent up to now is       12.0 secs

     total energy              =    -168.84373882 Ry
     estimated scf accuracy    <       0.02890435 Ry
     electrostatic embedding   =      -0.00074048 Ry
     electrolyte free energy   =       0.00000422 Ry
     correction to one-el term =       2.16428308 Ry

     iteration #  3     ecut=    35.00 Ry     beta= 0.30
     Davidson diagonalization with overlap
     ethr =  1.31E-04,  avg # of iterations =  9.0

     negative rho (up, down):  7.127E-05 0.000E+00

     add environment contribution to local potential
     polarization accuracy = 9.4E-12, # of iterations =  20

     total cpu time spent up to now is       17.3 secs

     total energy              =    -168.82801502 Ry
     estimated scf accuracy    <       0.04500748 Ry
     electrostatic embedding   =      -0.00093310 Ry
     electrolyte free energy   =       0.00000421 Ry
     correction to one-el term =       2.05786622 Ry

     iteration #  4     ecut=    35.00 Ry     beta= 0.30
     Davidson diagonalization with overlap
     ethr =  1.31E-04,  avg # of iterations =  2.0

     negative rho (up, down):  8.381E-05 0.000E+00

     add environment contribution to local potential
     polarization accuracy = 6.5E-12, # of iterations =  24

     total cpu time spent up to now is       22.3 secs

     total energy              =    -168.84706205 Ry
     estimated scf accuracy    <       0.04919477 Ry
     electrostatic embedding   =      -0.00086606 Ry
     electrolyte free energy   =       0.00000395 Ry
     correction to one-el term =       2.17158260 Ry

     iteration #  5     ecut=    35.00 Ry     beta= 0.30
     Davidson diagonalization with overlap
     ethr =  1.31E-04,  avg # of iterations =  2.0

     negative rho (up, down):  5.456E-05 0.000E+00

     add environment contribution to local potential
     polarization accuracy = 5.6E-12, # of iterations =  25

     total cpu time spent up to now is       27.4 secs

     total energy              =    -168.84857128 Ry
     estimated scf accuracy    <       0.01723751 Ry
     electrostatic embedding   =      -0.00107913 Ry
     electrolyte free energy   =       0.00000106 Ry
     correction to one-el term =       2.02316293 Ry

     iteration #  6     ecut=    35.00 Ry     beta= 0.30
     Davidson diagonalization with overlap
     ethr =  7.84E-05,  avg # of iterations =  1.0

     negative rho (up, down):  4.623E-05 0.000E+00

     add environment contribution to local potential
     polarization accuracy = 9.5E-12, # of iterations =  24

     total cpu time spent up to now is       32.4 secs

     total energy              =    -168.84812078 Ry
     estimated scf accuracy    <       0.01685898 Ry
     electrostatic embedding   =      -0.00107920 Ry
     electrolyte free energy   =      -0.00000011 Ry
     correction to one-el term =       2.02432899 Ry

     iteration #  7     ecut=    35.00 Ry     beta= 0.30
     Davidson diagonalization with overlap
     ethr =  7.66E-05,  avg # of iterations =  1.0

     negative rho (up, down):  5.453E-05 0.000E+00

     add environment contribution to local potential
     polarization accuracy = 5.1E-12, # of iterations =  19

     total cpu time spent up to now is       36.8 secs

     total energy              =    -168.84449125 Ry
     estimated scf accuracy    <       0.01520217 Ry
     electrostatic embedding   =      -0.00108875 Ry
     electrolyte free energy   =       0.00000419 Ry
     correction to one-el term =       2.02256380 Ry

     iteration #  8     ecut=    35.00 Ry     beta= 0.30
     Davidson diagonalization with overlap
     ethr =  6.91E-05,  avg # of iterations =  1.0

     negative rho (up, down):  5.035E-05 0.000E+00

     add environment contribution to local potential
     polarization accuracy = 6.2E-12, # of iterations =  20

     total cpu time spent up to now is       41.4 secs

     total energy              =    -168.84510797 Ry
     estimated scf accuracy    <       0.00066948 Ry
     electrostatic embedding   =      -0.00118834 Ry
     electrolyte free energy   =       0.00000422 Ry
     correction to one-el term =       1.97883095 Ry

     iteration #  9     ecut=    35.00 Ry     beta= 0.30
     Davidson diagonalization with overlap
     ethr =  3.04E-06,  avg # of iterations =  6.0

     negative rho (up, down):  4.578E-05 0.000E+00

     add environment contribution to local potential
     polarization accuracy = 4.2E-12, # of iterations =  16

     total cpu time spent up to now is       45.6 secs

     total energy              =    -168.84516059 Ry
     estimated scf accuracy    <       0.00646673 Ry
     electrostatic embedding   =      -0.00119930 Ry
     electrolyte free energy   =       0.00000422 Ry
     correction to one-el term =       1.97081315 Ry

     iteration # 10     ecut=    35.00 Ry     beta= 0.30
     Davidson diagonalization with overlap
     ethr =  3.04E-06,  avg # of iterations =  1.0

     negative rho (up, down):  4.298E-05 0.000E+00

     add environment contribution to local potential
     polarization accuracy = 9.5E-12, # of iterations =  17

     total cpu time spent up to now is       49.8 secs

     total energy              =    -168.84520075 Ry
     estimated scf accuracy    <       0.00041392 Ry
     electrostatic embedding   =      -0.00119592 Ry
     electrolyte free energy   =       0.00000422 Ry
     correction to one-el term =       1.96639324 Ry

     iteration # 11     ecut=    35.00 Ry     beta= 0.30
     Davidson diagonalization with overlap
     ethr =  1.88E-06,  avg # of iterations =  2.0

     negative rho (up, down):  4.112E-05 0.000E+00

     add environment contribution to local potential
     polarization accuracy = 4.8E-12, # of iterations =  14

     total cpu time spent up to now is       53.8 secs

     total energy              =    -168.84530013 Ry
     estimated scf accuracy    <       0.00143688 Ry
     electrostatic embedding   =      -0.00118370 Ry
     electrolyte free energy   =       0.00000422 Ry
     correction to one-el term =       1.96489746 Ry

     iteration # 12     ecut=    35.00 Ry     beta= 0.30
     Davidson diagonalization with overlap
     ethr =  1.88E-06,  avg # of iterations =  1.0

     negative rho (up, down):  4.017E-05 0.000E+00

     add environment contribution to local potential
     polarization accuracy = 9.5E-12, # of iterations =  13

     total cpu time spent up to now is       57.6 secs

     total energy              =    -168.84528556 Ry
     estimated scf accuracy    <       0.00034624 Ry
     electrostatic embedding   =      -0.00118755 Ry
     electrolyte free energy   =       0.00000422 Ry
     correction to one-el term =       1.96415332 Ry

     iteration # 13     ecut=    35.00 Ry     beta= 0.30
     Davidson diagonalization with overlap
     ethr =  1.57E-06,  avg # of iterations =  1.0

     negative rho (up, down):  3.883E-05 0.000E+00

     the potential shift due to the Gaussian-smeared nuclei is    -0.2351 ev

     total cpu time spent up to now is       59.6 secs

     End of self-consistent calculation

          k = 0.0000 0.0000 0.0000 (  7059 PWs)   bands (ev):

    -7.7802  -7.2585  -7.0237  -6.2593  -5.7064  -5.7064  -5.6795  -4.7669
    -4.7282  -4.7282  -4.3722  -4.1618  -1.5254   0.0223   0.0946

     the Fermi energy is    -4.2665 ev

!    total energy              =    -168.84530507 Ry
     estimated scf accuracy    <       0.00000057 Ry
     smearing contrib. (-TS)   =      -0.00074302 Ry
     internal energy E=F+TS    =    -168.84456205 Ry

     The total energy is F=E-TS. E is the sum of the following terms:
     one-electron contribution =   -1722.68495401 Ry
     hartree contribution      =     874.28577032 Ry
     xc contribution           =     -44.70479332 Ry
     ewald contribution        =     722.29669101 Ry
     electrostatic embedding   =      -0.00119021 Ry
     electrolyte free energy   =       0.00000422 Ry
     correction to one-el term =       1.96390993 Ry

     WARNING: you are using the parabolic pbc correction;
              the potential shift above must be added to 
              band and Fermi energies.

     convergence has been achieved in  13 iterations

     negative rho (up, down):  3.883E-05 0.000E+00
 forces lc
       1    0.0000    0.0000   -0.0074
       2    0.0000    0.0000    0.0074

     Forces acting on atoms (cartesian axes, Ry/au):

     atom    1 type  1   force =     0.00000000    0.00000000    0.01603474
     atom    2 type  1   force =     0.00000000    0.00000000   -0.01603474

     Total force =     0.022677     Total SCF correction =     0.002400
     SCF correction compared to forces is large: reduce conv_thr to get better values

     Writing output data file /Users/gabrielmedrano/Desktop/q-e/Environ/tests/../..//tempdir/pwscf.save/

     init_run     :      2.09s CPU      2.36s WALL (       1 calls)
     electrons    :     60.65s CPU     57.17s WALL (       1 calls)
     forces       :      1.27s CPU      1.40s WALL (       1 calls)

     Called by init_run:
     wfcinit      :      0.07s CPU      0.07s WALL (       1 calls)
     potinit      :      0.51s CPU      0.54s WALL (       1 calls)
     hinit0       :      0.89s CPU      0.91s WALL (       1 calls)

     Called by electrons:
     c_bands      :      2.06s CPU      1.72s WALL (      13 calls)
     sum_band     :     19.00s CPU     11.57s WALL (      13 calls)
     v_of_rho     :      2.59s CPU      2.98s WALL (      14 calls)
     newd         :      6.42s CPU      8.88s WALL (      14 calls)
     mix_rho      :      0.39s CPU      0.50s WALL (      13 calls)

     Called by c_bands:
     init_us_2    :      0.05s CPU      0.06s WALL (      27 calls)
     cegterg      :      1.89s CPU      1.52s WALL (      13 calls)

     Called by *egterg:
     cdiaghg      :      0.01s CPU      0.01s WALL (      53 calls)
     h_psi        :      1.46s CPU      1.34s WALL (      54 calls)
     s_psi        :      0.12s CPU      0.02s WALL (      54 calls)
     g_psi        :      0.01s CPU      0.01s WALL (      40 calls)

     Called by h_psi:
     h_psi:calbec :      0.10s CPU      0.06s WALL (      54 calls)
     vloc_psi     :      1.22s CPU      1.23s WALL (      54 calls)
     add_vuspsi   :      0.13s CPU      0.04s WALL (      54 calls)

     General routines
     calbec       :      0.16s CPU      0.08s WALL (      71 calls)
     fft          :     14.46s CPU     15.39s WALL (    1334 calls)
     ffts         :      0.06s CPU      0.06s WALL (      27 calls)
     fftw         :      1.25s CPU      1.26s WALL (    1139 calls)
     interpolate  :      0.20s CPU      0.21s WALL (      14 calls)

     Parallel routines
     fft_scatt_xy :      1.35s CPU      1.36s WALL (    1142 calls)
     fft_scatt_yz :      1.50s CPU      1.51s WALL (    1142 calls)

     Environ routines
     calc_eelect  :      0.03s CPU      0.03s WALL (      26 calls)
     calc_velect  :     26.27s CPU     27.50s WALL (      24 calls)
     calc_vgcs    :      0.50s CPU      0.50s WALL (      12 calls)
     dielectric   :      0.15s CPU      0.15s WALL (      16 calls)
     electrolyte  :      0.00s CPU      0.00s WALL (       2 calls)
     calc_felect  :      0.06s CPU      0.07s WALL (       1 calls)

     PWSCF        :   1m 4.12s CPU   1m 1.09s WALL


   This run was terminated on:  11:16:15  22Jan2021            

=------------------------------------------------------------------------------=
   JOB DONE.
=------------------------------------------------------------------------------=
 Calling electrostatic_initbase now
 electrolyte_distance:    20.213699999999999     
 sc_distance:    0.0000000000000000     
 velectrostatic started
 vreference created

%%%% IONS %%%%%%%%%%%%%%%%%%%%%%%%%%%%%%%%%%%%%%%%%%%%%%%%%%%%%%%%%%%%%%%%%%%%%%
 number of ions             =          2
 ionic center of charge     =      0.2500000     0.2500000     3.7555159
 total ionic charge         =    -22.0000000
 ionic dipole               =      0.0000000     0.0000000     0.0000000
 ionic quadrupole (pc)      =    -42.2546857   -42.2546857   -81.2309514
 ionic quadrupole (gauss)   =    -45.0046857   -45.0046857   -83.9809514
 ion   1 type =  1 coordinates =      2.7717630     2.7717630    18.8972600
 ion   2 type =  1 coordinates =      0.0000000     0.0000000    22.7403400

%%%% SYSTEM %%%%%%%%%%%%%%%%%%%%%%%%%%%%%%%%%%%%%%%%%%%%%%%%%%%%%%%%%%%%%%%%%%%%
 system is built from all present ionic types
 system defined dimension   =  2 
 system defined axis        =  3 
 system center              =      0.2500000     0.2500000     3.7555159 
 system width               =      0.3466278 

%%%% IONS %%%%%%%%%%%%%%%%%%%%%%%%%%%%%%%%%%%%%%%%%%%%%%%%%%%%%%%%%%%%%%%%%%%%%%
 number of ions             =          2
 ionic center of charge     =      0.2500000     0.2500000     3.7555159
 total ionic charge         =    -22.0000000
 ionic dipole               =      0.0000000     0.0000000     0.0000000
 ionic quadrupole (pc)      =    -42.2546857   -42.2546857   -81.2309514
 ionic quadrupole (gauss)   =    -45.0046857   -45.0046857   -83.9809514
 ion   1 type =  1 coordinates =      2.7717630     2.7717630    18.8972600
 ion   2 type =  1 coordinates =      0.0000000     0.0000000    22.7403400

%%%% SYSTEM %%%%%%%%%%%%%%%%%%%%%%%%%%%%%%%%%%%%%%%%%%%%%%%%%%%%%%%%%%%%%%%%%%%%
 system is built from all present ionic types
 system defined dimension   =  2 
 system defined axis        =  3 
 system center              =      0.2500000     0.2500000     3.7555159 
 system width               =      0.3466278 

%%%% DIELECTRIC %%%%%%%%%%%%%%%%%%%%%%%%%%%%%%%%%%%%%%%%%%%%%%%%%%%%%%%%%%%%%%%%%
 dielectric build on homogeneous background
 environment bulk permitt.  =     80.0000000 
 dielectric flags
 need gradient              =  F 
 need factor depend. sqrt   =  F 
 total dielectric charge    =      0.0000000

%%%% BOUNDARY %%%%%%%%%%%%%%%%%%%%%%%%%%%%%%%%%%%%%%%%%%%%%%%%%%%%%%%%%%%%%%%%%%
 boundary label             = electrolyte          
 boundary mode              = system               
 boundary is built as an analytic function centered on system position
 center of the boundary     =      0.2500000     0.2500000     3.7555159 
 distance from the center   =     20.2137000 
 spread of the interface    =      0.0010000 
 dimensionality             =  2 
 axis                       =  3 
 volume of the QM region    =   1245.0753797 
 surface of the QM region   =      0.0000000 

%%%% ELECTROLYTE %%%%%%%%%%%%%%%%%%%%%%%%%%%%%%%%%%%%%%%%%%%%%%%%%%%%%%%%%%%%%%%%
 number electrol. species   =    2
 solvent temperature        =   300.0
 Debye length / sqrt(eps)   =      6.5084097
 electrolyte species    1
 bulk concentration  (a.u.) =      0.8924E-06
 bulk concentration (mol/L) =      0.0100000
 ionic charge               =   -1.00
 electrolyte species    2
 bulk concentration  (a.u.) =      0.8924E-06
 bulk concentration (mol/L) =      0.0100000
 ionic charge               =    1.00
 electrolyte flags
 linearized                 =  F
 total electrolyte charge   =      0.0000000

%%%% ELECTRONS %%%%%%%%%%%%%%%%%%%%%%%%%%%%%%%%%%%%%%%%%%%%%%%%%%%%%%%%%%%%%%%%%
 number of electrons        =         22
 total electronic charge    =     22.0000000

%%%% ELECTRONS %%%%%%%%%%%%%%%%%%%%%%%%%%%%%%%%%%%%%%%%%%%%%%%%%%%%%%%%%%%%%%%%%
 number of electrons        =         22
 total electronic charge    =     22.0000000

%%%% BOUNDARY %%%%%%%%%%%%%%%%%%%%%%%%%%%%%%%%%%%%%%%%%%%%%%%%%%%%%%%%%%%%%%%%%%
 boundary label             = solvent              
 boundary mode              = electronic           
 boundary is built as a function of a smooth density
 function type              =  2 
 using the modified SCCS function with parameters 
 rhomax                     =      0.0050000 
 rhomin                     =      0.0001000 
 volume of the QM region    =    421.3270460 
 surface of the QM region   =     62.2806146 

%%%% DIELECTRIC %%%%%%%%%%%%%%%%%%%%%%%%%%%%%%%%%%%%%%%%%%%%%%%%%%%%%%%%%%%%%%%%%
 dielectric build on homogeneous background
 environment bulk permitt.  =     80.0000000 
 dielectric flags
 need gradient              =  F 
 need factor depend. sqrt   =  F 
 total dielectric charge    =      0.0000000

%%%% DENSITY %%%%%%%%%%%%%%%%%%%%%%%%%%%%%%%%%%%%%%%%%%%%%%%%%%%%%%%%%%%%%%%%%%%
 density label              = dvtot                                                                           
 integral of density        =      0.000000000    

%%%% DENSITY %%%%%%%%%%%%%%%%%%%%%%%%%%%%%%%%%%%%%%%%%%%%%%%%%%%%%%%%%%%%%%%%%%%
 density label              = vreference                                                                      
 integral of density        =      0.000000000    

%%%% DENSITY %%%%%%%%%%%%%%%%%%%%%%%%%%%%%%%%%%%%%%%%%%%%%%%%%%%%%%%%%%%%%%%%%%%
 density label              = velectrostatic                                                                  
 integral of density        =      0.000000000    

%%%% CHARGES %%%%%%%%%%%%%%%%%%%%%%%%%%%%%%%%%%%%%%%%%%%%%%%%%%%%%%%%%%%%%%%%%%%
 total number of charges    =         24
 total charge               =     -0.0000000

%%%% DENSITY %%%%%%%%%%%%%%%%%%%%%%%%%%%%%%%%%%%%%%%%%%%%%%%%%%%%%%%%%%%%%%%%%%%
 density label              = vsoftcavity                                                                     
 integral of density        =      0.000000000    

%%%% ELECTRONS %%%%%%%%%%%%%%%%%%%%%%%%%%%%%%%%%%%%%%%%%%%%%%%%%%%%%%%%%%%%%%%%%
 number of electrons        =         22
 total electronic charge    =     22.0000000

%%%% ELECTRONS %%%%%%%%%%%%%%%%%%%%%%%%%%%%%%%%%%%%%%%%%%%%%%%%%%%%%%%%%%%%%%%%%
 number of electrons        =         22
 total electronic charge    =     22.0000000

%%%% BOUNDARY %%%%%%%%%%%%%%%%%%%%%%%%%%%%%%%%%%%%%%%%%%%%%%%%%%%%%%%%%%%%%%%%%%
 boundary label             = solvent              
 boundary mode              = electronic           
 boundary is built as a function of a smooth density
 function type              =  2 
 using the modified SCCS function with parameters 
 rhomax                     =      0.0050000 
 rhomin                     =      0.0001000 
 volume of the QM region    =    406.3415875 
 surface of the QM region   =     62.4713151 

%%%% DIELECTRIC %%%%%%%%%%%%%%%%%%%%%%%%%%%%%%%%%%%%%%%%%%%%%%%%%%%%%%%%%%%%%%%%%
 dielectric build on homogeneous background
 environment bulk permitt.  =     80.0000000 
 dielectric flags
 need gradient              =  F 
 need factor depend. sqrt   =  F 
 total dielectric charge    =      0.0000000

%%%% DENSITY %%%%%%%%%%%%%%%%%%%%%%%%%%%%%%%%%%%%%%%%%%%%%%%%%%%%%%%%%%%%%%%%%%%
 density label              = vreference                                                                      
 integral of density        =     0.3054476677E-12

%%%% COMPUTE ELECTROSTATIC POTENTIAL %%%%%%%%%%%%%%%%%%%%%%%%%%%%%%%%%%%%%%%%%%%
 Starting from polarization: rhoiter =      0.000000
 Iteration #          1
 calling poisson_gradient_direct
 finished poisson_gradient_direct
 finished scalar product environ gradient
 delta_qm =   0.775010E-03 delta_en =   0.311372E+00 tol =   0.100000E-10
 Iteration #          2
 calling poisson_gradient_direct
 finished poisson_gradient_direct
 finished scalar product environ gradient
 delta_qm =   0.679593E-03 delta_en =   0.239421E+00 tol =   0.100000E-10
 Iteration #          3
 calling poisson_gradient_direct
 finished poisson_gradient_direct
 finished scalar product environ gradient
 delta_qm =   0.167353E-03 delta_en =   0.145189E-01 tol =   0.100000E-10
 Iteration #          4
 calling poisson_gradient_direct
 finished poisson_gradient_direct
 finished scalar product environ gradient
 delta_qm =   0.120080E-03 delta_en =   0.747495E-02 tol =   0.100000E-10
 Iteration #          5
 calling poisson_gradient_direct
 finished poisson_gradient_direct
 finished scalar product environ gradient
 delta_qm =   0.487271E-04 delta_en =   0.123085E-02 tol =   0.100000E-10
 Iteration #          6
 calling poisson_gradient_direct
 finished poisson_gradient_direct
 finished scalar product environ gradient
 delta_qm =   0.208688E-04 delta_en =   0.225767E-03 tol =   0.100000E-10
 Iteration #          7
 calling poisson_gradient_direct
 finished poisson_gradient_direct
 finished scalar product environ gradient
 delta_qm =   0.126112E-04 delta_en =   0.824477E-04 tol =   0.100000E-10
 Iteration #          8
 calling poisson_gradient_direct
 finished poisson_gradient_direct
 finished scalar product environ gradient
 delta_qm =   0.648431E-05 delta_en =   0.217968E-04 tol =   0.100000E-10
 Iteration #          9
 calling poisson_gradient_direct
 finished poisson_gradient_direct
 finished scalar product environ gradient
 delta_qm =   0.296052E-05 delta_en =   0.454360E-05 tol =   0.100000E-10
 Iteration #         10
 calling poisson_gradient_direct
 finished poisson_gradient_direct
 finished scalar product environ gradient
 delta_qm =   0.154104E-05 delta_en =   0.123110E-05 tol =   0.100000E-10
 Iteration #         11
 calling poisson_gradient_direct
 finished poisson_gradient_direct
 finished scalar product environ gradient
 delta_qm =   0.933418E-06 delta_en =   0.451666E-06 tol =   0.100000E-10
 Iteration #         12
 calling poisson_gradient_direct
 finished poisson_gradient_direct
 finished scalar product environ gradient
 delta_qm =   0.553335E-06 delta_en =   0.158724E-06 tol =   0.100000E-10
 Iteration #         13
 calling poisson_gradient_direct
 finished poisson_gradient_direct
 finished scalar product environ gradient
 delta_qm =   0.307605E-06 delta_en =   0.490514E-07 tol =   0.100000E-10
 Iteration #         14
 calling poisson_gradient_direct
 finished poisson_gradient_direct
 finished scalar product environ gradient
 delta_qm =   0.171825E-06 delta_en =   0.153052E-07 tol =   0.100000E-10
 Iteration #         15
 calling poisson_gradient_direct
 finished poisson_gradient_direct
 finished scalar product environ gradient
 delta_qm =   0.104568E-06 delta_en =   0.566844E-08 tol =   0.100000E-10
 Iteration #         16
 calling poisson_gradient_direct
 finished poisson_gradient_direct
 finished scalar product environ gradient
 delta_qm =   0.670347E-07 delta_en =   0.232951E-08 tol =   0.100000E-10
 Iteration #         17
 calling poisson_gradient_direct
 finished poisson_gradient_direct
 finished scalar product environ gradient
 delta_qm =   0.419657E-07 delta_en =   0.912965E-09 tol =   0.100000E-10
 Iteration #         18
 calling poisson_gradient_direct
 finished poisson_gradient_direct
 finished scalar product environ gradient
 delta_qm =   0.248722E-07 delta_en =   0.320696E-09 tol =   0.100000E-10
 Iteration #         19
 calling poisson_gradient_direct
 finished poisson_gradient_direct
 finished scalar product environ gradient
 delta_qm =   0.145856E-07 delta_en =   0.110284E-09 tol =   0.100000E-10
 Iteration #         20
 calling poisson_gradient_direct
 finished poisson_gradient_direct
 finished scalar product environ gradient
 delta_qm =   0.929196E-08 delta_en =   0.447589E-10 tol =   0.100000E-10
 Iteration #         21
 calling poisson_gradient_direct
 finished poisson_gradient_direct
 finished scalar product environ gradient
 delta_qm =   0.618941E-08 delta_en =   0.198593E-10 tol =   0.100000E-10
 Iteration #         22
 calling poisson_gradient_direct
 finished poisson_gradient_direct
 finished scalar product environ gradient
 delta_qm =   0.396519E-08 delta_en =   0.815068E-11 tol =   0.100000E-10
 Charges are converged, EXIT

%%%% DENSITY %%%%%%%%%%%%%%%%%%%%%%%%%%%%%%%%%%%%%%%%%%%%%%%%%%%%%%%%%%%%%%%%%%%
 density label              = velectrostatic                                                                  
 integral of density        =     -231.6773439    

%%%% CHARGES %%%%%%%%%%%%%%%%%%%%%%%%%%%%%%%%%%%%%%%%%%%%%%%%%%%%%%%%%%%%%%%%%%%
 total number of charges    =         24
 total charge               =     -0.0000000

%%%% DENSITY %%%%%%%%%%%%%%%%%%%%%%%%%%%%%%%%%%%%%%%%%%%%%%%%%%%%%%%%%%%%%%%%%%%
 density label              = vsoftcavity                                                                     
 integral of density        =     0.7587765224    

%%%% DENSITY %%%%%%%%%%%%%%%%%%%%%%%%%%%%%%%%%%%%%%%%%%%%%%%%%%%%%%%%%%%%%%%%%%%
 density label              = dvtot                                                                           
 integral of density        =     -230.9185674    

%%%% ELECTRONS %%%%%%%%%%%%%%%%%%%%%%%%%%%%%%%%%%%%%%%%%%%%%%%%%%%%%%%%%%%%%%%%%
 number of electrons        =         22
 total electronic charge    =     22.0000000

%%%% ELECTRONS %%%%%%%%%%%%%%%%%%%%%%%%%%%%%%%%%%%%%%%%%%%%%%%%%%%%%%%%%%%%%%%%%
 number of electrons        =         22
 total electronic charge    =     22.0000000

%%%% BOUNDARY %%%%%%%%%%%%%%%%%%%%%%%%%%%%%%%%%%%%%%%%%%%%%%%%%%%%%%%%%%%%%%%%%%
 boundary label             = solvent              
 boundary mode              = electronic           
 boundary is built as a function of a smooth density
 function type              =  2 
 using the modified SCCS function with parameters 
 rhomax                     =      0.0050000 
 rhomin                     =      0.0001000 
 volume of the QM region    =    398.1450227 
 surface of the QM region   =     62.5636380 

%%%% DIELECTRIC %%%%%%%%%%%%%%%%%%%%%%%%%%%%%%%%%%%%%%%%%%%%%%%%%%%%%%%%%%%%%%%%%
 dielectric build on homogeneous background
 environment bulk permitt.  =     80.0000000 
 dielectric flags
 need gradient              =  F 
 need factor depend. sqrt   =  F 
 total dielectric charge    =      0.0000015

%%%% DENSITY %%%%%%%%%%%%%%%%%%%%%%%%%%%%%%%%%%%%%%%%%%%%%%%%%%%%%%%%%%%%%%%%%%%
 density label              = vreference                                                                      
 integral of density        =     0.3364153899E-11

%%%% COMPUTE ELECTROSTATIC POTENTIAL %%%%%%%%%%%%%%%%%%%%%%%%%%%%%%%%%%%%%%%%%%%
 Starting from polarization: rhoiter =      0.080635
 Iteration #          1
 calling poisson_gradient_direct
 finished poisson_gradient_direct
 finished scalar product environ gradient
 delta_qm =   0.911053E-04 delta_en =   0.430281E-02 tol =   0.100000E-10
 Iteration #          2
 calling poisson_gradient_direct
 finished poisson_gradient_direct
 finished scalar product environ gradient
 delta_qm =   0.693378E-04 delta_en =   0.249232E-02 tol =   0.100000E-10
 Iteration #          3
 calling poisson_gradient_direct
 finished poisson_gradient_direct
 finished scalar product environ gradient
 delta_qm =   0.363670E-04 delta_en =   0.685613E-03 tol =   0.100000E-10
 Iteration #          4
 calling poisson_gradient_direct
 finished poisson_gradient_direct
 finished scalar product environ gradient
 delta_qm =   0.203115E-04 delta_en =   0.213869E-03 tol =   0.100000E-10
 Iteration #          5
 calling poisson_gradient_direct
 finished poisson_gradient_direct
 finished scalar product environ gradient
 delta_qm =   0.104039E-04 delta_en =   0.561117E-04 tol =   0.100000E-10
 Iteration #          6
 calling poisson_gradient_direct
 finished poisson_gradient_direct
 finished scalar product environ gradient
 delta_qm =   0.643110E-05 delta_en =   0.214405E-04 tol =   0.100000E-10
 Iteration #          7
 calling poisson_gradient_direct
 finished poisson_gradient_direct
 finished scalar product environ gradient
 delta_qm =   0.361827E-05 delta_en =   0.678684E-05 tol =   0.100000E-10
 Iteration #          8
 calling poisson_gradient_direct
 finished poisson_gradient_direct
 finished scalar product environ gradient
 delta_qm =   0.201924E-05 delta_en =   0.211368E-05 tol =   0.100000E-10
 Iteration #          9
 calling poisson_gradient_direct
 finished poisson_gradient_direct
 finished scalar product environ gradient
 delta_qm =   0.124833E-05 delta_en =   0.807834E-06 tol =   0.100000E-10
 Iteration #         10
 calling poisson_gradient_direct
 finished poisson_gradient_direct
 finished scalar product environ gradient
 delta_qm =   0.778870E-06 delta_en =   0.314482E-06 tol =   0.100000E-10
 Iteration #         11
 calling poisson_gradient_direct
 finished poisson_gradient_direct
 finished scalar product environ gradient
 delta_qm =   0.459628E-06 delta_en =   0.109516E-06 tol =   0.100000E-10
 Iteration #         12
 calling poisson_gradient_direct
 finished poisson_gradient_direct
 finished scalar product environ gradient
 delta_qm =   0.267790E-06 delta_en =   0.371752E-07 tol =   0.100000E-10
 Iteration #         13
 calling poisson_gradient_direct
 finished poisson_gradient_direct
 finished scalar product environ gradient
 delta_qm =   0.165686E-06 delta_en =   0.142311E-07 tol =   0.100000E-10
 Iteration #         14
 calling poisson_gradient_direct
 finished poisson_gradient_direct
 finished scalar product environ gradient
 delta_qm =   0.106531E-06 delta_en =   0.588327E-08 tol =   0.100000E-10
 Iteration #         15
 calling poisson_gradient_direct
 finished poisson_gradient_direct
 finished scalar product environ gradient
 delta_qm =   0.663827E-07 delta_en =   0.228442E-08 tol =   0.100000E-10
 Iteration #         16
 calling poisson_gradient_direct
 finished poisson_gradient_direct
 finished scalar product environ gradient
 delta_qm =   0.396075E-07 delta_en =   0.813241E-09 tol =   0.100000E-10
 Iteration #         17
 calling poisson_gradient_direct
 finished poisson_gradient_direct
 finished scalar product environ gradient
 delta_qm =   0.236831E-07 delta_en =   0.290765E-09 tol =   0.100000E-10
 Iteration #         18
 calling poisson_gradient_direct
 finished poisson_gradient_direct
 finished scalar product environ gradient
 delta_qm =   0.147118E-07 delta_en =   0.112201E-09 tol =   0.100000E-10
 Iteration #         19
 calling poisson_gradient_direct
 finished poisson_gradient_direct
 finished scalar product environ gradient
 delta_qm =   0.918125E-08 delta_en =   0.436987E-10 tol =   0.100000E-10
 Iteration #         20
 calling poisson_gradient_direct
 finished poisson_gradient_direct
 finished scalar product environ gradient
 delta_qm =   0.575838E-08 delta_en =   0.171896E-10 tol =   0.100000E-10
 Iteration #         21
 calling poisson_gradient_direct
 finished poisson_gradient_direct
 finished scalar product environ gradient
 delta_qm =   0.399245E-08 delta_en =   0.826313E-11 tol =   0.100000E-10
 Charges are converged, EXIT

%%%% DENSITY %%%%%%%%%%%%%%%%%%%%%%%%%%%%%%%%%%%%%%%%%%%%%%%%%%%%%%%%%%%%%%%%%%%
 density label              = velectrostatic                                                                  
 integral of density        =     -217.6388343    

%%%% CHARGES %%%%%%%%%%%%%%%%%%%%%%%%%%%%%%%%%%%%%%%%%%%%%%%%%%%%%%%%%%%%%%%%%%%
 total number of charges    =         24
 total charge               =      0.0000000

%%%% DENSITY %%%%%%%%%%%%%%%%%%%%%%%%%%%%%%%%%%%%%%%%%%%%%%%%%%%%%%%%%%%%%%%%%%%
 density label              = vsoftcavity                                                                     
 integral of density        =     0.9766167113    

%%%% DENSITY %%%%%%%%%%%%%%%%%%%%%%%%%%%%%%%%%%%%%%%%%%%%%%%%%%%%%%%%%%%%%%%%%%%
 density label              = dvtot                                                                           
 integral of density        =     -216.6622176    

%%%% ELECTRONS %%%%%%%%%%%%%%%%%%%%%%%%%%%%%%%%%%%%%%%%%%%%%%%%%%%%%%%%%%%%%%%%%
 number of electrons        =         22
 total electronic charge    =     22.0000000

%%%% ELECTRONS %%%%%%%%%%%%%%%%%%%%%%%%%%%%%%%%%%%%%%%%%%%%%%%%%%%%%%%%%%%%%%%%%
 number of electrons        =         22
 total electronic charge    =     22.0000000

%%%% BOUNDARY %%%%%%%%%%%%%%%%%%%%%%%%%%%%%%%%%%%%%%%%%%%%%%%%%%%%%%%%%%%%%%%%%%
 boundary label             = solvent              
 boundary mode              = electronic           
 boundary is built as a function of a smooth density
 function type              =  2 
 using the modified SCCS function with parameters 
 rhomax                     =      0.0050000 
 rhomin                     =      0.0001000 
 volume of the QM region    =    412.4458371 
 surface of the QM region   =     62.2460078 

%%%% DIELECTRIC %%%%%%%%%%%%%%%%%%%%%%%%%%%%%%%%%%%%%%%%%%%%%%%%%%%%%%%%%%%%%%%%%
 dielectric build on homogeneous background
 environment bulk permitt.  =     80.0000000 
 dielectric flags
 need gradient              =  F 
 need factor depend. sqrt   =  F 
 total dielectric charge    =     -0.0000008

%%%% DENSITY %%%%%%%%%%%%%%%%%%%%%%%%%%%%%%%%%%%%%%%%%%%%%%%%%%%%%%%%%%%%%%%%%%%
 density label              = vreference                                                                      
 integral of density        =     0.5415261186E-11

%%%% COMPUTE ELECTROSTATIC POTENTIAL %%%%%%%%%%%%%%%%%%%%%%%%%%%%%%%%%%%%%%%%%%%
 Starting from polarization: rhoiter =      0.079652
 Iteration #          1
 calling poisson_gradient_direct
 finished poisson_gradient_direct
 finished scalar product environ gradient
 delta_qm =   0.932849E-04 delta_en =   0.451116E-02 tol =   0.100000E-10
 Iteration #          2
 calling poisson_gradient_direct
 finished poisson_gradient_direct
 finished scalar product environ gradient
 delta_qm =   0.495944E-04 delta_en =   0.127506E-02 tol =   0.100000E-10
 Iteration #          3
 calling poisson_gradient_direct
 finished poisson_gradient_direct
 finished scalar product environ gradient
 delta_qm =   0.326620E-04 delta_en =   0.553033E-03 tol =   0.100000E-10
 Iteration #          4
 calling poisson_gradient_direct
 finished poisson_gradient_direct
 finished scalar product environ gradient
 delta_qm =   0.165014E-04 delta_en =   0.141158E-03 tol =   0.100000E-10
 Iteration #          5
 calling poisson_gradient_direct
 finished poisson_gradient_direct
 finished scalar product environ gradient
 delta_qm =   0.955364E-05 delta_en =   0.473154E-04 tol =   0.100000E-10
 Iteration #          6
 calling poisson_gradient_direct
 finished poisson_gradient_direct
 finished scalar product environ gradient
 delta_qm =   0.567780E-05 delta_en =   0.167119E-04 tol =   0.100000E-10
 Iteration #          7
 calling poisson_gradient_direct
 finished poisson_gradient_direct
 finished scalar product environ gradient
 delta_qm =   0.306401E-05 delta_en =   0.486682E-05 tol =   0.100000E-10
 Iteration #          8
 calling poisson_gradient_direct
 finished poisson_gradient_direct
 finished scalar product environ gradient
 delta_qm =   0.173446E-05 delta_en =   0.155953E-05 tol =   0.100000E-10
 Iteration #          9
 calling poisson_gradient_direct
 finished poisson_gradient_direct
 finished scalar product environ gradient
 delta_qm =   0.106164E-05 delta_en =   0.584274E-06 tol =   0.100000E-10
 Iteration #         10
 calling poisson_gradient_direct
 finished poisson_gradient_direct
 finished scalar product environ gradient
 delta_qm =   0.636808E-06 delta_en =   0.210224E-06 tol =   0.100000E-10
 Iteration #         11
 calling poisson_gradient_direct
 finished poisson_gradient_direct
 finished scalar product environ gradient
 delta_qm =   0.364246E-06 delta_en =   0.687787E-07 tol =   0.100000E-10
 Iteration #         12
 calling poisson_gradient_direct
 finished poisson_gradient_direct
 finished scalar product environ gradient
 delta_qm =   0.209605E-06 delta_en =   0.227755E-07 tol =   0.100000E-10
 Iteration #         13
 calling poisson_gradient_direct
 finished poisson_gradient_direct
 finished scalar product environ gradient
 delta_qm =   0.128178E-06 delta_en =   0.851709E-08 tol =   0.100000E-10
 Iteration #         14
 calling poisson_gradient_direct
 finished poisson_gradient_direct
 finished scalar product environ gradient
 delta_qm =   0.805522E-07 delta_en =   0.336372E-08 tol =   0.100000E-10
 Iteration #         15
 calling poisson_gradient_direct
 finished poisson_gradient_direct
 finished scalar product environ gradient
 delta_qm =   0.489847E-07 delta_en =   0.124390E-08 tol =   0.100000E-10
 Iteration #         16
 calling poisson_gradient_direct
 finished poisson_gradient_direct
 finished scalar product environ gradient
 delta_qm =   0.286344E-07 delta_en =   0.425050E-09 tol =   0.100000E-10
 Iteration #         17
 calling poisson_gradient_direct
 finished poisson_gradient_direct
 finished scalar product environ gradient
 delta_qm =   0.168983E-07 delta_en =   0.148031E-09 tol =   0.100000E-10
 Iteration #         18
 calling poisson_gradient_direct
 finished poisson_gradient_direct
 finished scalar product environ gradient
 delta_qm =   0.102848E-07 delta_en =   0.548345E-10 tol =   0.100000E-10
 Iteration #         19
 calling poisson_gradient_direct
 finished poisson_gradient_direct
 finished scalar product environ gradient
 delta_qm =   0.663262E-08 delta_en =   0.228053E-10 tol =   0.100000E-10
 Iteration #         20
 calling poisson_gradient_direct
 finished poisson_gradient_direct
 finished scalar product environ gradient
 delta_qm =   0.426054E-08 delta_en =   0.941009E-11 tol =   0.100000E-10
 Charges are converged, EXIT

%%%% DENSITY %%%%%%%%%%%%%%%%%%%%%%%%%%%%%%%%%%%%%%%%%%%%%%%%%%%%%%%%%%%%%%%%%%%
 density label              = velectrostatic                                                                  
 integral of density        =     -238.0591994    

%%%% CHARGES %%%%%%%%%%%%%%%%%%%%%%%%%%%%%%%%%%%%%%%%%%%%%%%%%%%%%%%%%%%%%%%%%%%
 total number of charges    =         24
 total charge               =     -0.0000000

%%%% DENSITY %%%%%%%%%%%%%%%%%%%%%%%%%%%%%%%%%%%%%%%%%%%%%%%%%%%%%%%%%%%%%%%%%%%
 density label              = vsoftcavity                                                                     
 integral of density        =     0.8759482607    

%%%% DENSITY %%%%%%%%%%%%%%%%%%%%%%%%%%%%%%%%%%%%%%%%%%%%%%%%%%%%%%%%%%%%%%%%%%%
 density label              = dvtot                                                                           
 integral of density        =     -237.1832511    

%%%% ELECTRONS %%%%%%%%%%%%%%%%%%%%%%%%%%%%%%%%%%%%%%%%%%%%%%%%%%%%%%%%%%%%%%%%%
 number of electrons        =         22
 total electronic charge    =     22.0000000

%%%% ELECTRONS %%%%%%%%%%%%%%%%%%%%%%%%%%%%%%%%%%%%%%%%%%%%%%%%%%%%%%%%%%%%%%%%%
 number of electrons        =         22
 total electronic charge    =     22.0000000

%%%% BOUNDARY %%%%%%%%%%%%%%%%%%%%%%%%%%%%%%%%%%%%%%%%%%%%%%%%%%%%%%%%%%%%%%%%%%
 boundary label             = solvent              
 boundary mode              = electronic           
 boundary is built as a function of a smooth density
 function type              =  2 
 using the modified SCCS function with parameters 
 rhomax                     =      0.0050000 
 rhomin                     =      0.0001000 
 volume of the QM region    =    406.4774713 
 surface of the QM region   =     62.2476813 

%%%% DIELECTRIC %%%%%%%%%%%%%%%%%%%%%%%%%%%%%%%%%%%%%%%%%%%%%%%%%%%%%%%%%%%%%%%%%
 dielectric build on homogeneous background
 environment bulk permitt.  =     80.0000000 
 dielectric flags
 need gradient              =  F 
 need factor depend. sqrt   =  F 
 total dielectric charge    =      0.0000049

%%%% DENSITY %%%%%%%%%%%%%%%%%%%%%%%%%%%%%%%%%%%%%%%%%%%%%%%%%%%%%%%%%%%%%%%%%%%
 density label              = vreference                                                                      
 integral of density        =     0.2006025466E-11

%%%% COMPUTE ELECTROSTATIC POTENTIAL %%%%%%%%%%%%%%%%%%%%%%%%%%%%%%%%%%%%%%%%%%%
 Starting from polarization: rhoiter =      0.085481
 Iteration #          1
 calling poisson_gradient_direct
 finished poisson_gradient_direct
 finished scalar product environ gradient
 delta_qm =   0.899619E-04 delta_en =   0.419549E-02 tol =   0.100000E-10
 Iteration #          2
 calling poisson_gradient_direct
 finished poisson_gradient_direct
 finished scalar product environ gradient
 delta_qm =   0.758689E-04 delta_en =   0.298396E-02 tol =   0.100000E-10
 Iteration #          3
 calling poisson_gradient_direct
 finished poisson_gradient_direct
 finished scalar product environ gradient
 delta_qm =   0.363539E-04 delta_en =   0.685119E-03 tol =   0.100000E-10
 Iteration #          4
 calling poisson_gradient_direct
 finished poisson_gradient_direct
 finished scalar product environ gradient
 delta_qm =   0.206124E-04 delta_en =   0.220254E-03 tol =   0.100000E-10
 Iteration #          5
 calling poisson_gradient_direct
 finished poisson_gradient_direct
 finished scalar product environ gradient
 delta_qm =   0.973995E-05 delta_en =   0.491788E-04 tol =   0.100000E-10
 Iteration #          6
 calling poisson_gradient_direct
 finished poisson_gradient_direct
 finished scalar product environ gradient
 delta_qm =   0.586983E-05 delta_en =   0.178614E-04 tol =   0.100000E-10
 Iteration #          7
 calling poisson_gradient_direct
 finished poisson_gradient_direct
 finished scalar product environ gradient
 delta_qm =   0.324463E-05 delta_en =   0.545752E-05 tol =   0.100000E-10
 Iteration #          8
 calling poisson_gradient_direct
 finished poisson_gradient_direct
 finished scalar product environ gradient
 delta_qm =   0.169086E-05 delta_en =   0.148212E-05 tol =   0.100000E-10
 Iteration #          9
 calling poisson_gradient_direct
 finished poisson_gradient_direct
 finished scalar product environ gradient
 delta_qm =   0.976825E-06 delta_en =   0.494651E-06 tol =   0.100000E-10
 Iteration #         10
 calling poisson_gradient_direct
 finished poisson_gradient_direct
 finished scalar product environ gradient
 delta_qm =   0.595276E-06 delta_en =   0.183697E-06 tol =   0.100000E-10
 Iteration #         11
 calling poisson_gradient_direct
 finished poisson_gradient_direct
 finished scalar product environ gradient
 delta_qm =   0.349608E-06 delta_en =   0.633619E-07 tol =   0.100000E-10
 Iteration #         12
 calling poisson_gradient_direct
 finished poisson_gradient_direct
 finished scalar product environ gradient
 delta_qm =   0.202566E-06 delta_en =   0.212715E-07 tol =   0.100000E-10
 Iteration #         13
 calling poisson_gradient_direct
 finished poisson_gradient_direct
 finished scalar product environ gradient
 delta_qm =   0.125383E-06 delta_en =   0.814976E-08 tol =   0.100000E-10
 Iteration #         14
 calling poisson_gradient_direct
 finished poisson_gradient_direct
 finished scalar product environ gradient
 delta_qm =   0.839765E-07 delta_en =   0.365578E-08 tol =   0.100000E-10
 Iteration #         15
 calling poisson_gradient_direct
 finished poisson_gradient_direct
 finished scalar product environ gradient
 delta_qm =   0.578724E-07 delta_en =   0.173623E-08 tol =   0.100000E-10
 Iteration #         16
 calling poisson_gradient_direct
 finished poisson_gradient_direct
 finished scalar product environ gradient
 delta_qm =   0.398857E-07 delta_en =   0.824705E-09 tol =   0.100000E-10
 Iteration #         17
 calling poisson_gradient_direct
 finished poisson_gradient_direct
 finished scalar product environ gradient
 delta_qm =   0.282725E-07 delta_en =   0.414374E-09 tol =   0.100000E-10
 Iteration #         18
 calling poisson_gradient_direct
 finished poisson_gradient_direct
 finished scalar product environ gradient
 delta_qm =   0.206706E-07 delta_en =   0.221498E-09 tol =   0.100000E-10
 Iteration #         19
 calling poisson_gradient_direct
 finished poisson_gradient_direct
 finished scalar product environ gradient
 delta_qm =   0.155192E-07 delta_en =   0.124854E-09 tol =   0.100000E-10
 Iteration #         20
 calling poisson_gradient_direct
 finished poisson_gradient_direct
 finished scalar product environ gradient
 delta_qm =   0.116684E-07 delta_en =   0.705809E-10 tol =   0.100000E-10
 Iteration #         21
 calling poisson_gradient_direct
 finished poisson_gradient_direct
 finished scalar product environ gradient
 delta_qm =   0.862870E-08 delta_en =   0.385972E-10 tol =   0.100000E-10
 Iteration #         22
 calling poisson_gradient_direct
 finished poisson_gradient_direct
 finished scalar product environ gradient
 delta_qm =   0.647478E-08 delta_en =   0.217328E-10 tol =   0.100000E-10
 Iteration #         23
 calling poisson_gradient_direct
 finished poisson_gradient_direct
 finished scalar product environ gradient
 delta_qm =   0.471388E-08 delta_en =   0.115192E-10 tol =   0.100000E-10
 Iteration #         24
 calling poisson_gradient_direct
 finished poisson_gradient_direct
 finished scalar product environ gradient
 delta_qm =   0.354878E-08 delta_en =   0.652866E-11 tol =   0.100000E-10
 Charges are converged, EXIT

%%%% DENSITY %%%%%%%%%%%%%%%%%%%%%%%%%%%%%%%%%%%%%%%%%%%%%%%%%%%%%%%%%%%%%%%%%%%
 density label              = velectrostatic                                                                  
 integral of density        =     -222.5923116    

%%%% CHARGES %%%%%%%%%%%%%%%%%%%%%%%%%%%%%%%%%%%%%%%%%%%%%%%%%%%%%%%%%%%%%%%%%%%
 total number of charges    =         24
 total charge               =     -0.0000000

%%%% DENSITY %%%%%%%%%%%%%%%%%%%%%%%%%%%%%%%%%%%%%%%%%%%%%%%%%%%%%%%%%%%%%%%%%%%
 density label              = vsoftcavity                                                                     
 integral of density        =      1.117588569    

%%%% DENSITY %%%%%%%%%%%%%%%%%%%%%%%%%%%%%%%%%%%%%%%%%%%%%%%%%%%%%%%%%%%%%%%%%%%
 density label              = dvtot                                                                           
 integral of density        =     -221.4747230    

%%%% ELECTRONS %%%%%%%%%%%%%%%%%%%%%%%%%%%%%%%%%%%%%%%%%%%%%%%%%%%%%%%%%%%%%%%%%
 number of electrons        =         22
 total electronic charge    =     22.0000000

%%%% ELECTRONS %%%%%%%%%%%%%%%%%%%%%%%%%%%%%%%%%%%%%%%%%%%%%%%%%%%%%%%%%%%%%%%%%
 number of electrons        =         22
 total electronic charge    =     22.0000000

%%%% BOUNDARY %%%%%%%%%%%%%%%%%%%%%%%%%%%%%%%%%%%%%%%%%%%%%%%%%%%%%%%%%%%%%%%%%%
 boundary label             = solvent              
 boundary mode              = electronic           
 boundary is built as a function of a smooth density
 function type              =  2 
 using the modified SCCS function with parameters 
 rhomax                     =      0.0050000 
 rhomin                     =      0.0001000 
 volume of the QM region    =    406.3698262 
 surface of the QM region   =     62.2440484 

%%%% DIELECTRIC %%%%%%%%%%%%%%%%%%%%%%%%%%%%%%%%%%%%%%%%%%%%%%%%%%%%%%%%%%%%%%%%%
 dielectric build on homogeneous background
 environment bulk permitt.  =     80.0000000 
 dielectric flags
 need gradient              =  F 
 need factor depend. sqrt   =  F 
 total dielectric charge    =     -0.0000187

%%%% DENSITY %%%%%%%%%%%%%%%%%%%%%%%%%%%%%%%%%%%%%%%%%%%%%%%%%%%%%%%%%%%%%%%%%%%
 density label              = vreference                                                                      
 integral of density        =    -0.6929833509E-12

%%%% COMPUTE ELECTROSTATIC POTENTIAL %%%%%%%%%%%%%%%%%%%%%%%%%%%%%%%%%%%%%%%%%%%
 Starting from polarization: rhoiter =      0.086360
 Iteration #          1
 calling poisson_gradient_direct
 finished poisson_gradient_direct
 finished scalar product environ gradient
 delta_qm =   0.341814E-05 delta_en =   0.605683E-05 tol =   0.100000E-10
 Iteration #          2
 calling poisson_gradient_direct
 finished poisson_gradient_direct
 finished scalar product environ gradient
 delta_qm =   0.235236E-05 delta_en =   0.286862E-05 tol =   0.100000E-10
 Iteration #          3
 calling poisson_gradient_direct
 finished poisson_gradient_direct
 finished scalar product environ gradient
 delta_qm =   0.115618E-05 delta_en =   0.692977E-06 tol =   0.100000E-10
 Iteration #          4
 calling poisson_gradient_direct
 finished poisson_gradient_direct
 finished scalar product environ gradient
 delta_qm =   0.687304E-06 delta_en =   0.244885E-06 tol =   0.100000E-10
 Iteration #          5
 calling poisson_gradient_direct
 finished poisson_gradient_direct
 finished scalar product environ gradient
 delta_qm =   0.379211E-06 delta_en =   0.745464E-07 tol =   0.100000E-10
 Iteration #          6
 calling poisson_gradient_direct
 finished poisson_gradient_direct
 finished scalar product environ gradient
 delta_qm =   0.261490E-06 delta_en =   0.354466E-07 tol =   0.100000E-10
 Iteration #          7
 calling poisson_gradient_direct
 finished poisson_gradient_direct
 finished scalar product environ gradient
 delta_qm =   0.207040E-06 delta_en =   0.222215E-07 tol =   0.100000E-10
 Iteration #          8
 calling poisson_gradient_direct
 finished poisson_gradient_direct
 finished scalar product environ gradient
 delta_qm =   0.179150E-06 delta_en =   0.166379E-07 tol =   0.100000E-10
 Iteration #          9
 calling poisson_gradient_direct
 finished poisson_gradient_direct
 finished scalar product environ gradient
 delta_qm =   0.158294E-06 delta_en =   0.129896E-07 tol =   0.100000E-10
 Iteration #         10
 calling poisson_gradient_direct
 finished poisson_gradient_direct
 finished scalar product environ gradient
 delta_qm =   0.137840E-06 delta_en =   0.984953E-08 tol =   0.100000E-10
 Iteration #         11
 calling poisson_gradient_direct
 finished poisson_gradient_direct
 finished scalar product environ gradient
 delta_qm =   0.117478E-06 delta_en =   0.715446E-08 tol =   0.100000E-10
 Iteration #         12
 calling poisson_gradient_direct
 finished poisson_gradient_direct
 finished scalar product environ gradient
 delta_qm =   0.984710E-07 delta_en =   0.502669E-08 tol =   0.100000E-10
 Iteration #         13
 calling poisson_gradient_direct
 finished poisson_gradient_direct
 finished scalar product environ gradient
 delta_qm =   0.810928E-07 delta_en =   0.340902E-08 tol =   0.100000E-10
 Iteration #         14
 calling poisson_gradient_direct
 finished poisson_gradient_direct
 finished scalar product environ gradient
 delta_qm =   0.658763E-07 delta_en =   0.224969E-08 tol =   0.100000E-10
 Iteration #         15
 calling poisson_gradient_direct
 finished poisson_gradient_direct
 finished scalar product environ gradient
 delta_qm =   0.528269E-07 delta_en =   0.144669E-08 tol =   0.100000E-10
 Iteration #         16
 calling poisson_gradient_direct
 finished poisson_gradient_direct
 finished scalar product environ gradient
 delta_qm =   0.417632E-07 delta_en =   0.904175E-09 tol =   0.100000E-10
 Iteration #         17
 calling poisson_gradient_direct
 finished poisson_gradient_direct
 finished scalar product environ gradient
 delta_qm =   0.326886E-07 delta_en =   0.553934E-09 tol =   0.100000E-10
 Iteration #         18
 calling poisson_gradient_direct
 finished poisson_gradient_direct
 finished scalar product environ gradient
 delta_qm =   0.254338E-07 delta_en =   0.335341E-09 tol =   0.100000E-10
 Iteration #         19
 calling poisson_gradient_direct
 finished poisson_gradient_direct
 finished scalar product environ gradient
 delta_qm =   0.195777E-07 delta_en =   0.198697E-09 tol =   0.100000E-10
 Iteration #         20
 calling poisson_gradient_direct
 finished poisson_gradient_direct
 finished scalar product environ gradient
 delta_qm =   0.149116E-07 delta_en =   0.115270E-09 tol =   0.100000E-10
 Iteration #         21
 calling poisson_gradient_direct
 finished poisson_gradient_direct
 finished scalar product environ gradient
 delta_qm =   0.111127E-07 delta_en =   0.640184E-10 tol =   0.100000E-10
 Iteration #         22
 calling poisson_gradient_direct
 finished poisson_gradient_direct
 finished scalar product environ gradient
 delta_qm =   0.843108E-08 delta_en =   0.368495E-10 tol =   0.100000E-10
 Iteration #         23
 calling poisson_gradient_direct
 finished poisson_gradient_direct
 finished scalar product environ gradient
 delta_qm =   0.643644E-08 delta_en =   0.214762E-10 tol =   0.100000E-10
 Iteration #         24
 calling poisson_gradient_direct
 finished poisson_gradient_direct
 finished scalar product environ gradient
 delta_qm =   0.466124E-08 delta_en =   0.112634E-10 tol =   0.100000E-10
 Iteration #         25
 calling poisson_gradient_direct
 finished poisson_gradient_direct
 finished scalar product environ gradient
 delta_qm =   0.328884E-08 delta_en =   0.560725E-11 tol =   0.100000E-10
 Charges are converged, EXIT

%%%% DENSITY %%%%%%%%%%%%%%%%%%%%%%%%%%%%%%%%%%%%%%%%%%%%%%%%%%%%%%%%%%%%%%%%%%%
 density label              = velectrostatic                                                                  
 integral of density        =     -222.6482983    

%%%% CHARGES %%%%%%%%%%%%%%%%%%%%%%%%%%%%%%%%%%%%%%%%%%%%%%%%%%%%%%%%%%%%%%%%%%%
 total number of charges    =         24
 total charge               =     -0.0000000

%%%% DENSITY %%%%%%%%%%%%%%%%%%%%%%%%%%%%%%%%%%%%%%%%%%%%%%%%%%%%%%%%%%%%%%%%%%%
 density label              = vsoftcavity                                                                     
 integral of density        =      1.120149942    

%%%% DENSITY %%%%%%%%%%%%%%%%%%%%%%%%%%%%%%%%%%%%%%%%%%%%%%%%%%%%%%%%%%%%%%%%%%%
 density label              = dvtot                                                                           
 integral of density        =     -221.5281483    

%%%% ELECTRONS %%%%%%%%%%%%%%%%%%%%%%%%%%%%%%%%%%%%%%%%%%%%%%%%%%%%%%%%%%%%%%%%%
 number of electrons        =         22
 total electronic charge    =     22.0000000

%%%% ELECTRONS %%%%%%%%%%%%%%%%%%%%%%%%%%%%%%%%%%%%%%%%%%%%%%%%%%%%%%%%%%%%%%%%%
 number of electrons        =         22
 total electronic charge    =     22.0000000

%%%% BOUNDARY %%%%%%%%%%%%%%%%%%%%%%%%%%%%%%%%%%%%%%%%%%%%%%%%%%%%%%%%%%%%%%%%%%
 boundary label             = solvent              
 boundary mode              = electronic           
 boundary is built as a function of a smooth density
 function type              =  2 
 using the modified SCCS function with parameters 
 rhomax                     =      0.0050000 
 rhomin                     =      0.0001000 
 volume of the QM region    =    405.9376758 
 surface of the QM region   =     62.2527438 

%%%% DIELECTRIC %%%%%%%%%%%%%%%%%%%%%%%%%%%%%%%%%%%%%%%%%%%%%%%%%%%%%%%%%%%%%%%%%
 dielectric build on homogeneous background
 environment bulk permitt.  =     80.0000000 
 dielectric flags
 need gradient              =  F 
 need factor depend. sqrt   =  F 
 total dielectric charge    =      0.0000166

%%%% DENSITY %%%%%%%%%%%%%%%%%%%%%%%%%%%%%%%%%%%%%%%%%%%%%%%%%%%%%%%%%%%%%%%%%%%
 density label              = vreference                                                                      
 integral of density        =    -0.6183562705E-11

%%%% COMPUTE ELECTROSTATIC POTENTIAL %%%%%%%%%%%%%%%%%%%%%%%%%%%%%%%%%%%%%%%%%%%
 Starting from polarization: rhoiter =      0.086418
 Iteration #          1
 calling poisson_gradient_direct
 finished poisson_gradient_direct
 finished scalar product environ gradient
 delta_qm =   0.422974E-05 delta_en =   0.927455E-05 tol =   0.100000E-10
 Iteration #          2
 calling poisson_gradient_direct
 finished poisson_gradient_direct
 finished scalar product environ gradient
 delta_qm =   0.341493E-05 delta_en =   0.604545E-05 tol =   0.100000E-10
 Iteration #          3
 calling poisson_gradient_direct
 finished poisson_gradient_direct
 finished scalar product environ gradient
 delta_qm =   0.183533E-05 delta_en =   0.174619E-05 tol =   0.100000E-10
 Iteration #          4
 calling poisson_gradient_direct
 finished poisson_gradient_direct
 finished scalar product environ gradient
 delta_qm =   0.101158E-05 delta_en =   0.530478E-06 tol =   0.100000E-10
 Iteration #          5
 calling poisson_gradient_direct
 finished poisson_gradient_direct
 finished scalar product environ gradient
 delta_qm =   0.500627E-06 delta_en =   0.129925E-06 tol =   0.100000E-10
 Iteration #          6
 calling poisson_gradient_direct
 finished poisson_gradient_direct
 finished scalar product environ gradient
 delta_qm =   0.316548E-06 delta_en =   0.519449E-07 tol =   0.100000E-10
 Iteration #          7
 calling poisson_gradient_direct
 finished poisson_gradient_direct
 finished scalar product environ gradient
 delta_qm =   0.209037E-06 delta_en =   0.226522E-07 tol =   0.100000E-10
 Iteration #          8
 calling poisson_gradient_direct
 finished poisson_gradient_direct
 finished scalar product environ gradient
 delta_qm =   0.159067E-06 delta_en =   0.131168E-07 tol =   0.100000E-10
 Iteration #          9
 calling poisson_gradient_direct
 finished poisson_gradient_direct
 finished scalar product environ gradient
 delta_qm =   0.135657E-06 delta_en =   0.954008E-08 tol =   0.100000E-10
 Iteration #         10
 calling poisson_gradient_direct
 finished poisson_gradient_direct
 finished scalar product environ gradient
 delta_qm =   0.117240E-06 delta_en =   0.712556E-08 tol =   0.100000E-10
 Iteration #         11
 calling poisson_gradient_direct
 finished poisson_gradient_direct
 finished scalar product environ gradient
 delta_qm =   0.100187E-06 delta_en =   0.520339E-08 tol =   0.100000E-10
 Iteration #         12
 calling poisson_gradient_direct
 finished poisson_gradient_direct
 finished scalar product environ gradient
 delta_qm =   0.842958E-07 delta_en =   0.368364E-08 tol =   0.100000E-10
 Iteration #         13
 calling poisson_gradient_direct
 finished poisson_gradient_direct
 finished scalar product environ gradient
 delta_qm =   0.699699E-07 delta_en =   0.253798E-08 tol =   0.100000E-10
 Iteration #         14
 calling poisson_gradient_direct
 finished poisson_gradient_direct
 finished scalar product environ gradient
 delta_qm =   0.572098E-07 delta_en =   0.169671E-08 tol =   0.100000E-10
 Iteration #         15
 calling poisson_gradient_direct
 finished poisson_gradient_direct
 finished scalar product environ gradient
 delta_qm =   0.459191E-07 delta_en =   0.109308E-08 tol =   0.100000E-10
 Iteration #         16
 calling poisson_gradient_direct
 finished poisson_gradient_direct
 finished scalar product environ gradient
 delta_qm =   0.366512E-07 delta_en =   0.696370E-09 tol =   0.100000E-10
 Iteration #         17
 calling poisson_gradient_direct
 finished poisson_gradient_direct
 finished scalar product environ gradient
 delta_qm =   0.287397E-07 delta_en =   0.428182E-09 tol =   0.100000E-10
 Iteration #         18
 calling poisson_gradient_direct
 finished poisson_gradient_direct
 finished scalar product environ gradient
 delta_qm =   0.224181E-07 delta_en =   0.260533E-09 tol =   0.100000E-10
 Iteration #         19
 calling poisson_gradient_direct
 finished poisson_gradient_direct
 finished scalar product environ gradient
 delta_qm =   0.171783E-07 delta_en =   0.152977E-09 tol =   0.100000E-10
 Iteration #         20
 calling poisson_gradient_direct
 finished poisson_gradient_direct
 finished scalar product environ gradient
 delta_qm =   0.131258E-07 delta_en =   0.893132E-10 tol =   0.100000E-10
 Iteration #         21
 calling poisson_gradient_direct
 finished poisson_gradient_direct
 finished scalar product environ gradient
 delta_qm =   0.995509E-08 delta_en =   0.513754E-10 tol =   0.100000E-10
 Iteration #         22
 calling poisson_gradient_direct
 finished poisson_gradient_direct
 finished scalar product environ gradient
 delta_qm =   0.739677E-08 delta_en =   0.283628E-10 tol =   0.100000E-10
 Iteration #         23
 calling poisson_gradient_direct
 finished poisson_gradient_direct
 finished scalar product environ gradient
 delta_qm =   0.564879E-08 delta_en =   0.165416E-10 tol =   0.100000E-10
 Iteration #         24
 calling poisson_gradient_direct
 finished poisson_gradient_direct
 finished scalar product environ gradient
 delta_qm =   0.427997E-08 delta_en =   0.949611E-11 tol =   0.100000E-10
 Charges are converged, EXIT

%%%% DENSITY %%%%%%%%%%%%%%%%%%%%%%%%%%%%%%%%%%%%%%%%%%%%%%%%%%%%%%%%%%%%%%%%%%%
 density label              = velectrostatic                                                                  
 integral of density        =     -222.3094728    

%%%% CHARGES %%%%%%%%%%%%%%%%%%%%%%%%%%%%%%%%%%%%%%%%%%%%%%%%%%%%%%%%%%%%%%%%%%%
 total number of charges    =         24
 total charge               =     -0.0000000

%%%% DENSITY %%%%%%%%%%%%%%%%%%%%%%%%%%%%%%%%%%%%%%%%%%%%%%%%%%%%%%%%%%%%%%%%%%%
 density label              = vsoftcavity                                                                     
 integral of density        =      1.120377319    

%%%% DENSITY %%%%%%%%%%%%%%%%%%%%%%%%%%%%%%%%%%%%%%%%%%%%%%%%%%%%%%%%%%%%%%%%%%%
 density label              = dvtot                                                                           
 integral of density        =     -221.1890955    

%%%% ELECTRONS %%%%%%%%%%%%%%%%%%%%%%%%%%%%%%%%%%%%%%%%%%%%%%%%%%%%%%%%%%%%%%%%%
 number of electrons        =         22
 total electronic charge    =     22.0000000

%%%% ELECTRONS %%%%%%%%%%%%%%%%%%%%%%%%%%%%%%%%%%%%%%%%%%%%%%%%%%%%%%%%%%%%%%%%%
 number of electrons        =         22
 total electronic charge    =     22.0000000

%%%% BOUNDARY %%%%%%%%%%%%%%%%%%%%%%%%%%%%%%%%%%%%%%%%%%%%%%%%%%%%%%%%%%%%%%%%%%
 boundary label             = solvent              
 boundary mode              = electronic           
 boundary is built as a function of a smooth density
 function type              =  2 
 using the modified SCCS function with parameters 
 rhomax                     =      0.0050000 
 rhomin                     =      0.0001000 
 volume of the QM region    =    401.7260576 
 surface of the QM region   =     62.3244833 

%%%% DIELECTRIC %%%%%%%%%%%%%%%%%%%%%%%%%%%%%%%%%%%%%%%%%%%%%%%%%%%%%%%%%%%%%%%%%
 dielectric build on homogeneous background
 environment bulk permitt.  =     80.0000000 
 dielectric flags
 need gradient              =  F 
 need factor depend. sqrt   =  F 
 total dielectric charge    =     -0.0000013

%%%% DENSITY %%%%%%%%%%%%%%%%%%%%%%%%%%%%%%%%%%%%%%%%%%%%%%%%%%%%%%%%%%%%%%%%%%%
 density label              = vreference                                                                      
 integral of density        =    -0.4611563971E-11

%%%% COMPUTE ELECTROSTATIC POTENTIAL %%%%%%%%%%%%%%%%%%%%%%%%%%%%%%%%%%%%%%%%%%%
 Starting from polarization: rhoiter =      0.086378
 Iteration #          1
 calling poisson_gradient_direct
 finished poisson_gradient_direct
 finished scalar product environ gradient
 delta_qm =   0.422980E-04 delta_en =   0.927479E-03 tol =   0.100000E-10
 Iteration #          2
 calling poisson_gradient_direct
 finished poisson_gradient_direct
 finished scalar product environ gradient
 delta_qm =   0.301889E-04 delta_en =   0.472455E-03 tol =   0.100000E-10
 Iteration #          3
 calling poisson_gradient_direct
 finished poisson_gradient_direct
 finished scalar product environ gradient
 delta_qm =   0.165210E-04 delta_en =   0.141494E-03 tol =   0.100000E-10
 Iteration #          4
 calling poisson_gradient_direct
 finished poisson_gradient_direct
 finished scalar product environ gradient
 delta_qm =   0.899661E-05 delta_en =   0.419588E-04 tol =   0.100000E-10
 Iteration #          5
 calling poisson_gradient_direct
 finished poisson_gradient_direct
 finished scalar product environ gradient
 delta_qm =   0.455141E-05 delta_en =   0.107388E-04 tol =   0.100000E-10
 Iteration #          6
 calling poisson_gradient_direct
 finished poisson_gradient_direct
 finished scalar product environ gradient
 delta_qm =   0.274612E-05 delta_en =   0.390934E-05 tol =   0.100000E-10
 Iteration #          7
 calling poisson_gradient_direct
 finished poisson_gradient_direct
 finished scalar product environ gradient
 delta_qm =   0.150569E-05 delta_en =   0.117526E-05 tol =   0.100000E-10
 Iteration #          8
 calling poisson_gradient_direct
 finished poisson_gradient_direct
 finished scalar product environ gradient
 delta_qm =   0.811459E-06 delta_en =   0.341349E-06 tol =   0.100000E-10
 Iteration #          9
 calling poisson_gradient_direct
 finished poisson_gradient_direct
 finished scalar product environ gradient
 delta_qm =   0.481860E-06 delta_en =   0.120367E-06 tol =   0.100000E-10
 Iteration #         10
 calling poisson_gradient_direct
 finished poisson_gradient_direct
 finished scalar product environ gradient
 delta_qm =   0.290616E-06 delta_en =   0.437827E-07 tol =   0.100000E-10
 Iteration #         11
 calling poisson_gradient_direct
 finished poisson_gradient_direct
 finished scalar product environ gradient
 delta_qm =   0.167336E-06 delta_en =   0.145159E-07 tol =   0.100000E-10
 Iteration #         12
 calling poisson_gradient_direct
 finished poisson_gradient_direct
 finished scalar product environ gradient
 delta_qm =   0.953401E-07 delta_en =   0.471212E-08 tol =   0.100000E-10
 Iteration #         13
 calling poisson_gradient_direct
 finished poisson_gradient_direct
 finished scalar product environ gradient
 delta_qm =   0.575480E-07 delta_en =   0.171683E-08 tol =   0.100000E-10
 Iteration #         14
 calling poisson_gradient_direct
 finished poisson_gradient_direct
 finished scalar product environ gradient
 delta_qm =   0.361770E-07 delta_en =   0.678471E-09 tol =   0.100000E-10
 Iteration #         15
 calling poisson_gradient_direct
 finished poisson_gradient_direct
 finished scalar product environ gradient
 delta_qm =   0.227437E-07 delta_en =   0.268155E-09 tol =   0.100000E-10
 Iteration #         16
 calling poisson_gradient_direct
 finished poisson_gradient_direct
 finished scalar product environ gradient
 delta_qm =   0.129369E-07 delta_en =   0.867617E-10 tol =   0.100000E-10
 Iteration #         17
 calling poisson_gradient_direct
 finished poisson_gradient_direct
 finished scalar product environ gradient
 delta_qm =   0.770930E-08 delta_en =   0.308102E-10 tol =   0.100000E-10
 Iteration #         18
 calling poisson_gradient_direct
 finished poisson_gradient_direct
 finished scalar product environ gradient
 delta_qm =   0.450216E-08 delta_en =   0.105077E-10 tol =   0.100000E-10
 Iteration #         19
 calling poisson_gradient_direct
 finished poisson_gradient_direct
 finished scalar product environ gradient
 delta_qm =   0.315016E-08 delta_en =   0.514434E-11 tol =   0.100000E-10
 Charges are converged, EXIT

%%%% DENSITY %%%%%%%%%%%%%%%%%%%%%%%%%%%%%%%%%%%%%%%%%%%%%%%%%%%%%%%%%%%%%%%%%%%
 density label              = velectrostatic                                                                  
 integral of density        =     -215.7129092    

%%%% CHARGES %%%%%%%%%%%%%%%%%%%%%%%%%%%%%%%%%%%%%%%%%%%%%%%%%%%%%%%%%%%%%%%%%%%
 total number of charges    =         24
 total charge               =      0.0000000

%%%% DENSITY %%%%%%%%%%%%%%%%%%%%%%%%%%%%%%%%%%%%%%%%%%%%%%%%%%%%%%%%%%%%%%%%%%%
 density label              = vsoftcavity                                                                     
 integral of density        =      1.234132759    

%%%% DENSITY %%%%%%%%%%%%%%%%%%%%%%%%%%%%%%%%%%%%%%%%%%%%%%%%%%%%%%%%%%%%%%%%%%%
 density label              = dvtot                                                                           
 integral of density        =     -214.4787765    

%%%% ELECTRONS %%%%%%%%%%%%%%%%%%%%%%%%%%%%%%%%%%%%%%%%%%%%%%%%%%%%%%%%%%%%%%%%%
 number of electrons        =         22
 total electronic charge    =     22.0000000

%%%% ELECTRONS %%%%%%%%%%%%%%%%%%%%%%%%%%%%%%%%%%%%%%%%%%%%%%%%%%%%%%%%%%%%%%%%%
 number of electrons        =         22
 total electronic charge    =     22.0000000

%%%% BOUNDARY %%%%%%%%%%%%%%%%%%%%%%%%%%%%%%%%%%%%%%%%%%%%%%%%%%%%%%%%%%%%%%%%%%
 boundary label             = solvent              
 boundary mode              = electronic           
 boundary is built as a function of a smooth density
 function type              =  2 
 using the modified SCCS function with parameters 
 rhomax                     =      0.0050000 
 rhomin                     =      0.0001000 
 volume of the QM region    =    400.6693815 
 surface of the QM region   =     62.3660370 

%%%% DIELECTRIC %%%%%%%%%%%%%%%%%%%%%%%%%%%%%%%%%%%%%%%%%%%%%%%%%%%%%%%%%%%%%%%%%
 dielectric build on homogeneous background
 environment bulk permitt.  =     80.0000000 
 dielectric flags
 need gradient              =  F 
 need factor depend. sqrt   =  F 
 total dielectric charge    =     -0.0000010

%%%% DENSITY %%%%%%%%%%%%%%%%%%%%%%%%%%%%%%%%%%%%%%%%%%%%%%%%%%%%%%%%%%%%%%%%%%%
 density label              = vreference                                                                      
 integral of density        =    -0.1292188941E-10

%%%% COMPUTE ELECTROSTATIC POTENTIAL %%%%%%%%%%%%%%%%%%%%%%%%%%%%%%%%%%%%%%%%%%%
 Starting from polarization: rhoiter =      0.085560
 Iteration #          1
 calling poisson_gradient_direct
 finished poisson_gradient_direct
 finished scalar product environ gradient
 delta_qm =   0.887189E-05 delta_en =   0.408035E-04 tol =   0.100000E-10
 Iteration #          2
 calling poisson_gradient_direct
 finished poisson_gradient_direct
 finished scalar product environ gradient
 delta_qm =   0.737040E-05 delta_en =   0.281610E-04 tol =   0.100000E-10
 Iteration #          3
 calling poisson_gradient_direct
 finished poisson_gradient_direct
 finished scalar product environ gradient
 delta_qm =   0.395078E-05 delta_en =   0.809154E-05 tol =   0.100000E-10
 Iteration #          4
 calling poisson_gradient_direct
 finished poisson_gradient_direct
 finished scalar product environ gradient
 delta_qm =   0.215401E-05 delta_en =   0.240526E-05 tol =   0.100000E-10
 Iteration #          5
 calling poisson_gradient_direct
 finished poisson_gradient_direct
 finished scalar product environ gradient
 delta_qm =   0.101978E-05 delta_en =   0.539109E-06 tol =   0.100000E-10
 Iteration #          6
 calling poisson_gradient_direct
 finished poisson_gradient_direct
 finished scalar product environ gradient
 delta_qm =   0.598438E-06 delta_en =   0.185653E-06 tol =   0.100000E-10
 Iteration #          7
 calling poisson_gradient_direct
 finished poisson_gradient_direct
 finished scalar product environ gradient
 delta_qm =   0.319428E-06 delta_en =   0.528947E-07 tol =   0.100000E-10
 Iteration #          8
 calling poisson_gradient_direct
 finished poisson_gradient_direct
 finished scalar product environ gradient
 delta_qm =   0.162290E-06 delta_en =   0.136536E-07 tol =   0.100000E-10
 Iteration #          9
 calling poisson_gradient_direct
 finished poisson_gradient_direct
 finished scalar product environ gradient
 delta_qm =   0.924087E-07 delta_en =   0.442681E-08 tol =   0.100000E-10
 Iteration #         10
 calling poisson_gradient_direct
 finished poisson_gradient_direct
 finished scalar product environ gradient
 delta_qm =   0.573078E-07 delta_en =   0.170252E-08 tol =   0.100000E-10
 Iteration #         11
 calling poisson_gradient_direct
 finished poisson_gradient_direct
 finished scalar product environ gradient
 delta_qm =   0.363769E-07 delta_en =   0.685987E-09 tol =   0.100000E-10
 Iteration #         12
 calling poisson_gradient_direct
 finished poisson_gradient_direct
 finished scalar product environ gradient
 delta_qm =   0.249555E-07 delta_en =   0.322846E-09 tol =   0.100000E-10
 Iteration #         13
 calling poisson_gradient_direct
 finished poisson_gradient_direct
 finished scalar product environ gradient
 delta_qm =   0.186264E-07 delta_en =   0.179856E-09 tol =   0.100000E-10
 Iteration #         14
 calling poisson_gradient_direct
 finished poisson_gradient_direct
 finished scalar product environ gradient
 delta_qm =   0.143800E-07 delta_en =   0.107198E-09 tol =   0.100000E-10
 Iteration #         15
 calling poisson_gradient_direct
 finished poisson_gradient_direct
 finished scalar product environ gradient
 delta_qm =   0.114652E-07 delta_en =   0.681443E-10 tol =   0.100000E-10
 Iteration #         16
 calling poisson_gradient_direct
 finished poisson_gradient_direct
 finished scalar product environ gradient
 delta_qm =   0.892802E-08 delta_en =   0.413215E-10 tol =   0.100000E-10
 Iteration #         17
 calling poisson_gradient_direct
 finished poisson_gradient_direct
 finished scalar product environ gradient
 delta_qm =   0.717690E-08 delta_en =   0.267017E-10 tol =   0.100000E-10
 Iteration #         18
 calling poisson_gradient_direct
 finished poisson_gradient_direct
 finished scalar product environ gradient
 delta_qm =   0.574766E-08 delta_en =   0.171256E-10 tol =   0.100000E-10
 Iteration #         19
 calling poisson_gradient_direct
 finished poisson_gradient_direct
 finished scalar product environ gradient
 delta_qm =   0.446604E-08 delta_en =   0.103398E-10 tol =   0.100000E-10
 Iteration #         20
 calling poisson_gradient_direct
 finished poisson_gradient_direct
 finished scalar product environ gradient
 delta_qm =   0.346335E-08 delta_en =   0.621811E-11 tol =   0.100000E-10
 Charges are converged, EXIT

%%%% DENSITY %%%%%%%%%%%%%%%%%%%%%%%%%%%%%%%%%%%%%%%%%%%%%%%%%%%%%%%%%%%%%%%%%%%
 density label              = velectrostatic                                                                  
 integral of density        =     -214.4251546    

%%%% CHARGES %%%%%%%%%%%%%%%%%%%%%%%%%%%%%%%%%%%%%%%%%%%%%%%%%%%%%%%%%%%%%%%%%%%
 total number of charges    =         24
 total charge               =      0.0000000

%%%% DENSITY %%%%%%%%%%%%%%%%%%%%%%%%%%%%%%%%%%%%%%%%%%%%%%%%%%%%%%%%%%%%%%%%%%%
 density label              = vsoftcavity                                                                     
 integral of density        =      1.246798155    

%%%% DENSITY %%%%%%%%%%%%%%%%%%%%%%%%%%%%%%%%%%%%%%%%%%%%%%%%%%%%%%%%%%%%%%%%%%%
 density label              = dvtot                                                                           
 integral of density        =     -213.1783564    

%%%% ELECTRONS %%%%%%%%%%%%%%%%%%%%%%%%%%%%%%%%%%%%%%%%%%%%%%%%%%%%%%%%%%%%%%%%%
 number of electrons        =         22
 total electronic charge    =     22.0000000

%%%% ELECTRONS %%%%%%%%%%%%%%%%%%%%%%%%%%%%%%%%%%%%%%%%%%%%%%%%%%%%%%%%%%%%%%%%%
 number of electrons        =         22
 total electronic charge    =     22.0000000

%%%% BOUNDARY %%%%%%%%%%%%%%%%%%%%%%%%%%%%%%%%%%%%%%%%%%%%%%%%%%%%%%%%%%%%%%%%%%
 boundary label             = solvent              
 boundary mode              = electronic           
 boundary is built as a function of a smooth density
 function type              =  2 
[...]
 delta_qm =   0.459047E-08 delta_en =   0.109240E-10 tol =   0.100000E-10
 Iteration #         16
 calling poisson_gradient_direct
 finished poisson_gradient_direct
 finished scalar product environ gradient
 delta_qm =   0.284882E-08 delta_en =   0.420722E-11 tol =   0.100000E-10
 Charges are converged, EXIT

%%%% DENSITY %%%%%%%%%%%%%%%%%%%%%%%%%%%%%%%%%%%%%%%%%%%%%%%%%%%%%%%%%%%%%%%%%%%
 density label              = velectrostatic                                                                  
 integral of density        =     -215.2244264    

%%%% CHARGES %%%%%%%%%%%%%%%%%%%%%%%%%%%%%%%%%%%%%%%%%%%%%%%%%%%%%%%%%%%%%%%%%%%
 total number of charges    =         24
 total charge               =      0.0000000

%%%% DENSITY %%%%%%%%%%%%%%%%%%%%%%%%%%%%%%%%%%%%%%%%%%%%%%%%%%%%%%%%%%%%%%%%%%%
 density label              = vsoftcavity                                                                     
 integral of density        =      1.239956575    

%%%% DENSITY %%%%%%%%%%%%%%%%%%%%%%%%%%%%%%%%%%%%%%%%%%%%%%%%%%%%%%%%%%%%%%%%%%%
 density label              = dvtot                                                                           
 integral of density        =     -213.9844698    

%%%% ELECTRONS %%%%%%%%%%%%%%%%%%%%%%%%%%%%%%%%%%%%%%%%%%%%%%%%%%%%%%%%%%%%%%%%%
 number of electrons        =         22
 total electronic charge    =     22.0000000

%%%% ELECTRONS %%%%%%%%%%%%%%%%%%%%%%%%%%%%%%%%%%%%%%%%%%%%%%%%%%%%%%%%%%%%%%%%%
 number of electrons        =         22
 total electronic charge    =     22.0000000

%%%% BOUNDARY %%%%%%%%%%%%%%%%%%%%%%%%%%%%%%%%%%%%%%%%%%%%%%%%%%%%%%%%%%%%%%%%%%
 boundary label             = solvent              
 boundary mode              = electronic           
 boundary is built as a function of a smooth density
 function type              =  2 
 using the modified SCCS function with parameters 
 rhomax                     =      0.0050000 
 rhomin                     =      0.0001000 
 volume of the QM region    =    403.6860025 
 surface of the QM region   =     62.2932965 

%%%% DIELECTRIC %%%%%%%%%%%%%%%%%%%%%%%%%%%%%%%%%%%%%%%%%%%%%%%%%%%%%%%%%%%%%%%%%
 dielectric build on homogeneous background
 environment bulk permitt.  =     80.0000000 
 dielectric flags
 need gradient              =  F 
 need factor depend. sqrt   =  F 
 total dielectric charge    =     -0.0000000

%%%% DENSITY %%%%%%%%%%%%%%%%%%%%%%%%%%%%%%%%%%%%%%%%%%%%%%%%%%%%%%%%%%%%%%%%%%%
 density label              = vreference                                                                      
 integral of density        =    -0.6110770105E-12

%%%% COMPUTE ELECTROSTATIC POTENTIAL %%%%%%%%%%%%%%%%%%%%%%%%%%%%%%%%%%%%%%%%%%%
 Starting from polarization: rhoiter =      0.086249
 Iteration #          1
 calling poisson_gradient_direct
 finished poisson_gradient_direct
 finished scalar product environ gradient
 delta_qm =   0.111694E-04 delta_en =   0.646728E-04 tol =   0.100000E-10
 Iteration #          2
 calling poisson_gradient_direct
 finished poisson_gradient_direct
 finished scalar product environ gradient
 delta_qm =   0.538532E-05 delta_en =   0.150345E-04 tol =   0.100000E-10
 Iteration #          3
 calling poisson_gradient_direct
 finished poisson_gradient_direct
 finished scalar product environ gradient
 delta_qm =   0.326388E-05 delta_en =   0.552248E-05 tol =   0.100000E-10
 Iteration #          4
 calling poisson_gradient_direct
 finished poisson_gradient_direct
 finished scalar product environ gradient
 delta_qm =   0.169464E-05 delta_en =   0.148875E-05 tol =   0.100000E-10
 Iteration #          5
 calling poisson_gradient_direct
 finished poisson_gradient_direct
 finished scalar product environ gradient
 delta_qm =   0.104336E-05 delta_en =   0.564331E-06 tol =   0.100000E-10
 Iteration #          6
 calling poisson_gradient_direct
 finished poisson_gradient_direct
 finished scalar product environ gradient
 delta_qm =   0.616991E-06 delta_en =   0.197343E-06 tol =   0.100000E-10
 Iteration #          7
 calling poisson_gradient_direct
 finished poisson_gradient_direct
 finished scalar product environ gradient
 delta_qm =   0.343786E-06 delta_en =   0.612691E-07 tol =   0.100000E-10
 Iteration #          8
 calling poisson_gradient_direct
 finished poisson_gradient_direct
 finished scalar product environ gradient
 delta_qm =   0.203981E-06 delta_en =   0.215697E-07 tol =   0.100000E-10
 Iteration #          9
 calling poisson_gradient_direct
 finished poisson_gradient_direct
 finished scalar product environ gradient
 delta_qm =   0.127754E-06 delta_en =   0.846088E-08 tol =   0.100000E-10
 Iteration #         10
 calling poisson_gradient_direct
 finished poisson_gradient_direct
 finished scalar product environ gradient
 delta_qm =   0.772243E-07 delta_en =   0.309153E-08 tol =   0.100000E-10
 Iteration #         11
 calling poisson_gradient_direct
 finished poisson_gradient_direct
 finished scalar product environ gradient
 delta_qm =   0.455410E-07 delta_en =   0.107515E-08 tol =   0.100000E-10
 Iteration #         12
 calling poisson_gradient_direct
 finished poisson_gradient_direct
 finished scalar product environ gradient
 delta_qm =   0.274939E-07 delta_en =   0.391865E-09 tol =   0.100000E-10
 Iteration #         13
 calling poisson_gradient_direct
 finished poisson_gradient_direct
 finished scalar product environ gradient
 delta_qm =   0.176329E-07 delta_en =   0.161180E-09 tol =   0.100000E-10
 Iteration #         14
 calling poisson_gradient_direct
 finished poisson_gradient_direct
 finished scalar product environ gradient
 delta_qm =   0.122170E-07 delta_en =   0.773739E-10 tol =   0.100000E-10
 Iteration #         15
 calling poisson_gradient_direct
 finished poisson_gradient_direct
 finished scalar product environ gradient
 delta_qm =   0.780185E-08 delta_en =   0.315544E-10 tol =   0.100000E-10
 Iteration #         16
 calling poisson_gradient_direct
 finished poisson_gradient_direct
 finished scalar product environ gradient
 delta_qm =   0.586118E-08 delta_en =   0.178088E-10 tol =   0.100000E-10
 Iteration #         17
 calling poisson_gradient_direct
 finished poisson_gradient_direct
 finished scalar product environ gradient
 delta_qm =   0.427397E-08 delta_en =   0.946952E-11 tol =   0.100000E-10
 Charges are converged, EXIT

%%%% DENSITY %%%%%%%%%%%%%%%%%%%%%%%%%%%%%%%%%%%%%%%%%%%%%%%%%%%%%%%%%%%%%%%%%%%
 density label              = velectrostatic                                                                  
 integral of density        =     -216.4128471    

%%%% CHARGES %%%%%%%%%%%%%%%%%%%%%%%%%%%%%%%%%%%%%%%%%%%%%%%%%%%%%%%%%%%%%%%%%%%
 total number of charges    =         24
 total charge               =     -0.0000000

%%%% DENSITY %%%%%%%%%%%%%%%%%%%%%%%%%%%%%%%%%%%%%%%%%%%%%%%%%%%%%%%%%%%%%%%%%%%
 density label              = vsoftcavity                                                                     
 integral of density        =      1.223217440    

%%%% DENSITY %%%%%%%%%%%%%%%%%%%%%%%%%%%%%%%%%%%%%%%%%%%%%%%%%%%%%%%%%%%%%%%%%%%
 density label              = dvtot                                                                           
 integral of density        =     -215.1896297    

%%%% ELECTRONS %%%%%%%%%%%%%%%%%%%%%%%%%%%%%%%%%%%%%%%%%%%%%%%%%%%%%%%%%%%%%%%%%
 number of electrons        =         22
 total electronic charge    =     22.0000000

%%%% ELECTRONS %%%%%%%%%%%%%%%%%%%%%%%%%%%%%%%%%%%%%%%%%%%%%%%%%%%%%%%%%%%%%%%%%
 number of electrons        =         22
 total electronic charge    =     22.0000000

%%%% BOUNDARY %%%%%%%%%%%%%%%%%%%%%%%%%%%%%%%%%%%%%%%%%%%%%%%%%%%%%%%%%%%%%%%%%%
 boundary label             = solvent              
 boundary mode              = electronic           
 boundary is built as a function of a smooth density
 function type              =  2 
 using the modified SCCS function with parameters 
 rhomax                     =      0.0050000 
 rhomin                     =      0.0001000 
 volume of the QM region    =    403.2021070 
 surface of the QM region   =     62.3050808 

%%%% DIELECTRIC %%%%%%%%%%%%%%%%%%%%%%%%%%%%%%%%%%%%%%%%%%%%%%%%%%%%%%%%%%%%%%%%%
 dielectric build on homogeneous background
 environment bulk permitt.  =     80.0000000 
 dielectric flags
 need gradient              =  F 
 need factor depend. sqrt   =  F 
 total dielectric charge    =      0.0000005

%%%% DENSITY %%%%%%%%%%%%%%%%%%%%%%%%%%%%%%%%%%%%%%%%%%%%%%%%%%%%%%%%%%%%%%%%%%%
 density label              = vreference                                                                      
 integral of density        =    -0.2834698910E-11

%%%% COMPUTE ELECTROSTATIC POTENTIAL %%%%%%%%%%%%%%%%%%%%%%%%%%%%%%%%%%%%%%%%%%%
 Starting from polarization: rhoiter =      0.087113
 Iteration #          1
 calling poisson_gradient_direct
 finished poisson_gradient_direct
 finished scalar product environ gradient
 delta_qm =   0.330369E-05 delta_en =   0.565802E-05 tol =   0.100000E-10
 Iteration #          2
 calling poisson_gradient_direct
 finished poisson_gradient_direct
 finished scalar product environ gradient
 delta_qm =   0.175434E-05 delta_en =   0.159548E-05 tol =   0.100000E-10
 Iteration #          3
 calling poisson_gradient_direct
 finished poisson_gradient_direct
 finished scalar product environ gradient
 delta_qm =   0.113288E-05 delta_en =   0.665325E-06 tol =   0.100000E-10
 Iteration #          4
 calling poisson_gradient_direct
 finished poisson_gradient_direct
 finished scalar product environ gradient
 delta_qm =   0.577482E-06 delta_en =   0.172879E-06 tol =   0.100000E-10
 Iteration #          5
 calling poisson_gradient_direct
 finished poisson_gradient_direct
 finished scalar product environ gradient
 delta_qm =   0.327593E-06 delta_en =   0.556331E-07 tol =   0.100000E-10
 Iteration #          6
 calling poisson_gradient_direct
 finished poisson_gradient_direct
 finished scalar product environ gradient
 delta_qm =   0.196135E-06 delta_en =   0.199423E-07 tol =   0.100000E-10
 Iteration #          7
 calling poisson_gradient_direct
 finished poisson_gradient_direct
 finished scalar product environ gradient
 delta_qm =   0.106829E-06 delta_en =   0.591626E-08 tol =   0.100000E-10
 Iteration #          8
 calling poisson_gradient_direct
 finished poisson_gradient_direct
 finished scalar product environ gradient
 delta_qm =   0.600950E-07 delta_en =   0.187215E-08 tol =   0.100000E-10
 Iteration #          9
 calling poisson_gradient_direct
 finished poisson_gradient_direct
 finished scalar product environ gradient
 delta_qm =   0.370754E-07 delta_en =   0.712584E-09 tol =   0.100000E-10
 Iteration #         10
 calling poisson_gradient_direct
 finished poisson_gradient_direct
 finished scalar product environ gradient
 delta_qm =   0.221959E-07 delta_en =   0.255394E-09 tol =   0.100000E-10
 Iteration #         11
 calling poisson_gradient_direct
 finished poisson_gradient_direct
 finished scalar product environ gradient
 delta_qm =   0.126143E-07 delta_en =   0.824875E-10 tol =   0.100000E-10
 Iteration #         12
 calling poisson_gradient_direct
 finished poisson_gradient_direct
 finished scalar product environ gradient
 delta_qm =   0.715548E-08 delta_en =   0.265425E-10 tol =   0.100000E-10
 Iteration #         13
 calling poisson_gradient_direct
 finished poisson_gradient_direct
 finished scalar product environ gradient
 delta_qm =   0.456226E-08 delta_en =   0.107901E-10 tol =   0.100000E-10
 Iteration #         14
 calling poisson_gradient_direct
 finished poisson_gradient_direct
 finished scalar product environ gradient
 delta_qm =   0.304396E-08 delta_en =   0.480332E-11 tol =   0.100000E-10
 Charges are converged, EXIT

%%%% DENSITY %%%%%%%%%%%%%%%%%%%%%%%%%%%%%%%%%%%%%%%%%%%%%%%%%%%%%%%%%%%%%%%%%%%
 density label              = velectrostatic                                                                  
 integral of density        =     -215.9548623    

%%%% CHARGES %%%%%%%%%%%%%%%%%%%%%%%%%%%%%%%%%%%%%%%%%%%%%%%%%%%%%%%%%%%%%%%%%%%
 total number of charges    =         24
 total charge               =     -0.0000000

%%%% DENSITY %%%%%%%%%%%%%%%%%%%%%%%%%%%%%%%%%%%%%%%%%%%%%%%%%%%%%%%%%%%%%%%%%%%
 density label              = vsoftcavity                                                                     
 integral of density        =      1.228527495    

%%%% DENSITY %%%%%%%%%%%%%%%%%%%%%%%%%%%%%%%%%%%%%%%%%%%%%%%%%%%%%%%%%%%%%%%%%%%
 density label              = dvtot                                                                           
 integral of density        =     -214.7263349    

%%%% ELECTRONS %%%%%%%%%%%%%%%%%%%%%%%%%%%%%%%%%%%%%%%%%%%%%%%%%%%%%%%%%%%%%%%%%
 number of electrons        =         22
 total electronic charge    =     22.0000000

%%%% ELECTRONS %%%%%%%%%%%%%%%%%%%%%%%%%%%%%%%%%%%%%%%%%%%%%%%%%%%%%%%%%%%%%%%%%
 number of electrons        =         22
 total electronic charge    =     22.0000000

%%%% BOUNDARY %%%%%%%%%%%%%%%%%%%%%%%%%%%%%%%%%%%%%%%%%%%%%%%%%%%%%%%%%%%%%%%%%%
 boundary label             = solvent              
 boundary mode              = electronic           
 boundary is built as a function of a smooth density
 function type              =  2 
 using the modified SCCS function with parameters 
 rhomax                     =      0.0050000 
 rhomin                     =      0.0001000 
 volume of the QM region    =    402.8017904 
 surface of the QM region   =     62.3154191 

%%%% DIELECTRIC %%%%%%%%%%%%%%%%%%%%%%%%%%%%%%%%%%%%%%%%%%%%%%%%%%%%%%%%%%%%%%%%%
 dielectric build on homogeneous background
 environment bulk permitt.  =     80.0000000 
 dielectric flags
 need gradient              =  F 
 need factor depend. sqrt   =  F 
 total dielectric charge    =     -0.0000001

%%%% DENSITY %%%%%%%%%%%%%%%%%%%%%%%%%%%%%%%%%%%%%%%%%%%%%%%%%%%%%%%%%%%%%%%%%%%
 density label              = vreference                                                                      
 integral of density        =     0.1448843778E-10

%%%% COMPUTE ELECTROSTATIC POTENTIAL %%%%%%%%%%%%%%%%%%%%%%%%%%%%%%%%%%%%%%%%%%%
 Starting from polarization: rhoiter =      0.086904
 Iteration #          1
 calling poisson_gradient_direct
 finished poisson_gradient_direct
 finished scalar product environ gradient
 delta_qm =   0.265756E-05 delta_en =   0.366126E-05 tol =   0.100000E-10
 Iteration #          2
 calling poisson_gradient_direct
 finished poisson_gradient_direct
 finished scalar product environ gradient
 delta_qm =   0.138062E-05 delta_en =   0.988133E-06 tol =   0.100000E-10
 Iteration #          3
 calling poisson_gradient_direct
 finished poisson_gradient_direct
 finished scalar product environ gradient
 delta_qm =   0.897858E-06 delta_en =   0.417908E-06 tol =   0.100000E-10
 Iteration #          4
 calling poisson_gradient_direct
 finished poisson_gradient_direct
 finished scalar product environ gradient
 delta_qm =   0.454413E-06 delta_en =   0.107045E-06 tol =   0.100000E-10
 Iteration #          5
 calling poisson_gradient_direct
 finished poisson_gradient_direct
 finished scalar product environ gradient
 delta_qm =   0.260455E-06 delta_en =   0.351667E-07 tol =   0.100000E-10
 Iteration #          6
 calling poisson_gradient_direct
 finished poisson_gradient_direct
 finished scalar product environ gradient
 delta_qm =   0.155485E-06 delta_en =   0.125325E-07 tol =   0.100000E-10
 Iteration #          7
 calling poisson_gradient_direct
 finished poisson_gradient_direct
 finished scalar product environ gradient
 delta_qm =   0.847682E-07 delta_en =   0.372504E-08 tol =   0.100000E-10
 Iteration #          8
 calling poisson_gradient_direct
 finished poisson_gradient_direct
 finished scalar product environ gradient
 delta_qm =   0.480023E-07 delta_en =   0.119451E-08 tol =   0.100000E-10
 Iteration #          9
 calling poisson_gradient_direct
 finished poisson_gradient_direct
 finished scalar product environ gradient
 delta_qm =   0.294370E-07 delta_en =   0.449213E-09 tol =   0.100000E-10
 Iteration #         10
 calling poisson_gradient_direct
 finished poisson_gradient_direct
 finished scalar product environ gradient
 delta_qm =   0.178579E-07 delta_en =   0.165321E-09 tol =   0.100000E-10
 Iteration #         11
 calling poisson_gradient_direct
 finished poisson_gradient_direct
 finished scalar product environ gradient
 delta_qm =   0.105078E-07 delta_en =   0.572382E-10 tol =   0.100000E-10
 Iteration #         12
 calling poisson_gradient_direct
 finished poisson_gradient_direct
 finished scalar product environ gradient
 delta_qm =   0.653197E-08 delta_en =   0.221184E-10 tol =   0.100000E-10
 Iteration #         13
 calling poisson_gradient_direct
 finished poisson_gradient_direct
 finished scalar product environ gradient
 delta_qm =   0.428197E-08 delta_en =   0.950502E-11 tol =   0.100000E-10
 Charges are converged, EXIT

%%%% DENSITY %%%%%%%%%%%%%%%%%%%%%%%%%%%%%%%%%%%%%%%%%%%%%%%%%%%%%%%%%%%%%%%%%%%
 density label              = velectrostatic                                                                  
 integral of density        =     -215.5971967    

%%%% CHARGES %%%%%%%%%%%%%%%%%%%%%%%%%%%%%%%%%%%%%%%%%%%%%%%%%%%%%%%%%%%%%%%%%%%
 total number of charges    =         24
 total charge               =     -0.0000000

%%%% DENSITY %%%%%%%%%%%%%%%%%%%%%%%%%%%%%%%%%%%%%%%%%%%%%%%%%%%%%%%%%%%%%%%%%%%
 density label              = vsoftcavity                                                                     
 integral of density        =      1.232389779    

%%%% DENSITY %%%%%%%%%%%%%%%%%%%%%%%%%%%%%%%%%%%%%%%%%%%%%%%%%%%%%%%%%%%%%%%%%%%
 density label              = dvtot                                                                           
 integral of density        =     -214.3648069    

%%%% ELECTRONS %%%%%%%%%%%%%%%%%%%%%%%%%%%%%%%%%%%%%%%%%%%%%%%%%%%%%%%%%%%%%%%%%
 number of electrons        =         22
 total electronic charge    =     22.0000000

%%%% ELECTRONS %%%%%%%%%%%%%%%%%%%%%%%%%%%%%%%%%%%%%%%%%%%%%%%%%%%%%%%%%%%%%%%%%
 number of electrons        =         22
 total electronic charge    =     22.0000000

%%%% BOUNDARY %%%%%%%%%%%%%%%%%%%%%%%%%%%%%%%%%%%%%%%%%%%%%%%%%%%%%%%%%%%%%%%%%%
 boundary label             = solvent              
 boundary mode              = electronic           
 boundary is built as a function of a smooth density
 function type              =  2 
 using the modified SCCS function with parameters 
 rhomax                     =      0.0050000 
 rhomin                     =      0.0001000 
 volume of the QM region    =    402.8017904 
 surface of the QM region   =     62.3154191 

%%%% DIELECTRIC %%%%%%%%%%%%%%%%%%%%%%%%%%%%%%%%%%%%%%%%%%%%%%%%%%%%%%%%%%%%%%%%%
 dielectric build on homogeneous background
 environment bulk permitt.  =     80.0000000 
 dielectric flags
 need gradient              =  F 
 need factor depend. sqrt   =  F 
 total dielectric charge    =     -0.0000009

%%%% DENSITY %%%%%%%%%%%%%%%%%%%%%%%%%%%%%%%%%%%%%%%%%%%%%%%%%%%%%%%%%%%%%%%%%%%
 density label              = dvtot                                                                           
 integral of density        =     -214.3648069    

%%%% DENSITY %%%%%%%%%%%%%%%%%%%%%%%%%%%%%%%%%%%%%%%%%%%%%%%%%%%%%%%%%%%%%%%%%%%
 density label              = vreference                                                                      
 integral of density        =     0.1448843778E-10

%%%% DENSITY %%%%%%%%%%%%%%%%%%%%%%%%%%%%%%%%%%%%%%%%%%%%%%%%%%%%%%%%%%%%%%%%%%%
 density label              = velectrostatic                                                                  
 integral of density        =     -215.5971967    

%%%% CHARGES %%%%%%%%%%%%%%%%%%%%%%%%%%%%%%%%%%%%%%%%%%%%%%%%%%%%%%%%%%%%%%%%%%%
 total number of charges    =         24
 total charge               =     -0.0000000

%%%% DENSITY %%%%%%%%%%%%%%%%%%%%%%%%%%%%%%%%%%%%%%%%%%%%%%%%%%%%%%%%%%%%%%%%%%%
 density label              = vsoftcavity                                                                     
 integral of density        =      1.232389779    
