
     Program PWSCF v.5.1 (svn rev. 11016M) starts on 30May2014 at 16:30:10 

     This program is part of the open-source Quantum ESPRESSO suite
     for quantum simulation of materials; please cite
         "P. Giannozzi et al., J. Phys.:Condens. Matter 21 395502 (2009);
          URL http://www.quantum-espresso.org", 
     in publications or presentations arising from this work. More details at
     http://www.quantum-espresso.org/quote

     Parallel version (MPI), running on     2 processors
     R & G space division:  proc/nbgrp/npool/nimage =       2
     Waiting for input...
     Reading input from standard input
Warning: card  &IONS ignored
Warning: card    ION_DYNAMICS    = 'BFGS' ignored
Warning: card  / ignored

     Current dimensions of program PWSCF are:
     Max number of different atomic species (ntypx) = 10
     Max number of k-points (npk) =  40000
     Max angular momentum in pseudopotentials (lmaxx) =  3
               file C.pbe-rrkjus.UPF: wavefunction(s)  2S 2P renormalized
               file O.pbe-rrkjus.UPF: wavefunction(s)  2S renormalized

     Subspace diagonalization in iterative solution of the eigenvalue problem:
     a serial algorithm will be used

 
     Parallelization info
     --------------------
     sticks:   dense  smooth     PW     G-vecs:    dense   smooth      PW
     Min        1102     549    134               165453    58471    7284
     Max        1103     550    135               165456    58494    7287
     Sum        2205    1099    269               330909   116965   14571
 


     bravais-lattice index     =            8
     lattice parameter (alat)  =      10.6881  a.u.
     unit-cell volume          =    4181.1215 (a.u.)^3
     number of atoms/cell      =           10
     number of atomic types    =            3
     number of electrons       =        89.00
     number of Kohn-Sham states=           80
     kinetic-energy cutoff     =      35.0000  Ry
     charge density cutoff     =     280.0000  Ry
     convergence threshold     =      5.0E-09
     mixing beta               =       0.2000
     number of iterations used =            8  plain     mixing
     Exchange-correlation      =  SLA  PW   PBE  PBE ( 1  4  3  4 0)
 

     Environ Module
     ==============

     Please cite
         "O. Andreussi, I. Dabo and N. Marzari, J. Chem. Phys. 136, 064102 (2012);"
     in publications or presentations arising from this work.

     compensation onset threshold      =               0.1000E+01 
     switching function adopted        =                     SCCS 
     density limit for vacuum region   =               0.5000E-02 
     density limit for bulk solvent    =               0.1000E-03 
     static permittivity               =                    80.00 
     epsilon calculation mode          =                     full 
     type of numerical differentiator  =            central diff. 
     number of points in num. diff.    =                        2 
     required accuracy                 =               0.5000E-12 
     linear mixing parameter           =                     0.60 
     correction slab geom. along axis  =                        3 
 

     celldm(1)=  10.688100  celldm(2)=   0.866025  celldm(3)=   3.954220
     celldm(4)=   0.000000  celldm(5)=   0.000000  celldm(6)=   0.000000

     crystal axes: (cart. coord. in units of alat)
               a(1) = (   1.000000   0.000000   0.000000 )  
               a(2) = (   0.000000   0.866025   0.000000 )  
               a(3) = (   0.000000   0.000000   3.954220 )  

     reciprocal axes: (cart. coord. in units 2 pi/alat)
               b(1) = (  1.000000  0.000000  0.000000 )  
               b(2) = (  0.000000  1.154701  0.000000 )  
               b(3) = (  0.000000  0.000000  0.252894 )  


     PseudoPot. # 1 for C  read from file:
     /home/oliviero/PWSCF/espresso/pseudo/C.pbe-rrkjus.UPF
     MD5 check sum: 00fb224312de0c5b6853bd333518df6f
     Pseudo is Ultrasoft, Zval =  4.0
     Generated by new atomic code, or converted to UPF format
     Using radial grid of  627 points,  4 beta functions with: 
                l(1) =   0
                l(2) =   0
                l(3) =   1
                l(4) =   1
     Q(r) pseudized with 0 coefficients 


     PseudoPot. # 2 for O  read from file:
     /home/oliviero/PWSCF/espresso/pseudo/O.pbe-rrkjus.UPF
     MD5 check sum: 390ba29e75625707450f3bd3f0eb6be9
     Pseudo is Ultrasoft, Zval =  6.0
     Generated by new atomic code, or converted to UPF format
     Using radial grid of 1269 points,  4 beta functions with: 
                l(1) =   0
                l(2) =   0
                l(3) =   1
                l(4) =   1
     Q(r) pseudized with 0 coefficients 


     PseudoPot. # 3 for Pt read from file:
     /home/oliviero/PWSCF/espresso/pseudo/Pt.pbe-nd-rrkjus.UPF
     MD5 check sum: 1413c21c79e416b56dc03f2d0e22670c
     Pseudo is Ultrasoft + core correction, Zval = 10.0
     Generated by new atomic code, or converted to UPF format
     Using radial grid of 1547 points,  3 beta functions with: 
                l(1) =   1
                l(2) =   2
                l(3) =   2
     Q(r) pseudized with 0 coefficients 


     atomic species   valence    mass     pseudopotential
        C              4.00     1.00000     C ( 1.00)
        O              6.00     1.00000     O ( 1.00)
        Pt            10.00     1.00000     Pt( 1.00)

     No symmetry found


                                    s                        frac. trans.

      isym =  1     identity                                     

 cryst.   s( 1) = (     1          0          0      )
                  (     0          1          0      )
                  (     0          0          1      )

 cart.    s( 1) = (  1.0000000  0.0000000  0.0000000 )
                  (  0.0000000  1.0000000  0.0000000 )
                  (  0.0000000  0.0000000  1.0000000 )


     point group C_1 (1)    
     there are  1 classes
     the character table:

       E    
A      1.00

     the symmetry operations in each class:
     E        1

   Cartesian axes

     site n.     atom                  positions (alat units)
         1           C   tau(   1) = (   0.4991611   0.4347567   1.2070461  )
         2           O   tau(   2) = (   0.4991542   0.4322212   1.4109013  )
         3           Pt  tau(   3) = (   0.7542339   0.0091745   0.8413229  )
         4           Pt  tau(   4) = (   0.2441023   0.0091745   0.8413226  )
         5           Pt  tau(   5) = (   0.0000034   0.4416918   0.8391348  )
         6           Pt  tau(   6) = (   0.4991682   0.4417635   0.8776299  )
         7           Pt  tau(   7) = (   0.0000038   0.7300598   0.4308181  )
         8           Pt  tau(   8) = (   0.4991683   0.7202168   0.4447460  )
         9           Pt  tau(   9) = (   0.2524172   0.2949237   0.4386572  )
        10           Pt  tau(  10) = (   0.7459196   0.2949237   0.4386575  )

   Crystallographic axes

     site n.     atom                  positions (cryst. coord.)
         1           C   tau(   1) = (  0.4991611  0.5020141  0.3052552  )
         2           O   tau(   2) = (  0.4991542  0.4990863  0.3568090  )
         3           Pt  tau(   3) = (  0.7542339  0.0105938  0.2127658  )
         4           Pt  tau(   4) = (  0.2441023  0.0105938  0.2127658  )
         5           Pt  tau(   5) = (  0.0000034  0.5100220  0.2122125  )
         6           Pt  tau(   6) = (  0.4991682  0.5101048  0.2219477  )
         7           Pt  tau(   7) = (  0.0000038  0.8430008  0.1089515  )
         8           Pt  tau(   8) = (  0.4991683  0.8316351  0.1124738  )
         9           Pt  tau(   9) = (  0.2524172  0.3405487  0.1109339  )
        10           Pt  tau(  10) = (  0.7459196  0.3405488  0.1109340  )

     number of k points=     1  Marzari-Vanderbilt smearing, width (Ry)=  0.0300
                       cart. coord. in units 2pi/alat
        k(    1) = (   0.0000000   0.0000000   0.0000000), wk =   2.0000000

                       cryst. coord.
        k(    1) = (   0.0000000   0.0000000   0.0000000), wk =   2.0000000

     Dense  grid:   330909 G-vectors     FFT dimensions: (  60,  50, 225)

     Smooth grid:   116965 G-vectors     FFT dimensions: (  45,  36, 160)

     Largest allocated arrays     est. size (Mb)     dimensions
        Kohn-Sham Wavefunctions         8.89 Mb     (    7284,   80)
        NL pseudopotentials            13.34 Mb     (    7284,  120)
        Each V/rho on FFT grid          5.17 Mb     (  339000)
        Each G-vector array             1.26 Mb     (  165456)
        G-vector shells                 0.32 Mb     (   42597)
     Largest temporary arrays     est. size (Mb)     dimensions
        Auxiliary wavefunctions        35.57 Mb     (    7284,  320)
        Each subspace H/S matrix        1.56 Mb     (     320,  320)
        Each <psi_i|beta_j> matrix      0.15 Mb     (     120,   80)
        Arrays for rho mixing          41.38 Mb     (  339000,    8)

     Check: negative/imaginary core charge=   -0.000038    0.000000

     Initial potential from superposition of free atoms

     starting charge   89.99875, renormalised to   89.00000

     negative rho (up, down):  7.106E-05 0.000E+00
     Starting wfc are   56 randomized atomic wfcs +   24 random wfc

     total cpu time spent up to now is        7.2 secs

     per-process dynamical memory:   142.3 Mb

     Self-consistent Calculation

     iteration #  1     ecut=    35.00 Ry     beta=0.20
     Davidson diagonalization with overlap
     ethr =  1.00E-02,  avg # of iterations =  6.0

     negative rho (up, down):  7.712E-05 0.000E+00

     total cpu time spent up to now is       14.2 secs

     total energy              =    -735.20636345 Ry
     Harris-Foulkes estimate   =    -735.95159606 Ry
     estimated scf accuracy    <       2.31944252 Ry
     solvation energy          =       0.00000000 Ry
     periodic energy correct.  =       0.00000000 Ry

     iteration #  2     ecut=    35.00 Ry     beta=0.20
     Davidson diagonalization with overlap
     ethr =  2.61E-03,  avg # of iterations =  4.0

     negative rho (up, down):  1.371E-04 0.000E+00

     total cpu time spent up to now is       21.2 secs

     total energy              =    -734.92186323 Ry
     Harris-Foulkes estimate   =    -736.43423530 Ry
     estimated scf accuracy    <      17.12033845 Ry
     solvation energy          =       0.00000000 Ry
     periodic energy correct.  =       0.00000000 Ry

     iteration #  3     ecut=    35.00 Ry     beta=0.20
     Davidson diagonalization with overlap
     ethr =  2.61E-03,  avg # of iterations =  2.0

     negative rho (up, down):  1.083E-04 0.000E+00

     add environment contribution to local potential
     polarization accuracy = 5.0E-13, # of iterations =  52

     total cpu time spent up to now is       36.4 secs

     total energy              =    -735.56660161 Ry
     Harris-Foulkes estimate   =    -735.65116654 Ry
     estimated scf accuracy    <       0.52386981 Ry
     solvation energy          =       0.00000000 Ry
     periodic energy correct.  =       0.00000000 Ry

     iteration #  4     ecut=    35.00 Ry     beta=0.20
     Davidson diagonalization with overlap
     ethr =  5.89E-04,  avg # of iterations =  8.0

     negative rho (up, down):  1.081E-04 0.000E+00

     add environment contribution to local potential
     polarization accuracy = 4.4E-13, # of iterations =  46

     total cpu time spent up to now is       50.4 secs

     total energy              =    -735.31794516 Ry
     Harris-Foulkes estimate   =    -752.32881454 Ry
     estimated scf accuracy    <       0.37100927 Ry
     solvation energy          =       0.02094982 Ry
     periodic energy correct.  =       0.22579344 Ry

     iteration #  5     ecut=    35.00 Ry     beta=0.20
     Davidson diagonalization with overlap
     ethr =  4.17E-04,  avg # of iterations =  3.0

     negative rho (up, down):  1.169E-04 0.000E+00

     add environment contribution to local potential
     polarization accuracy = 4.7E-13, # of iterations =  45

     total cpu time spent up to now is       63.3 secs

     total energy              =    -735.33073665 Ry
     Harris-Foulkes estimate   =    -750.49873547 Ry
     estimated scf accuracy    <       0.08434521 Ry
     solvation energy          =       0.01539988 Ry
     periodic energy correct.  =       0.21881607 Ry

     iteration #  6     ecut=    35.00 Ry     beta=0.20
     Davidson diagonalization with overlap
     ethr =  9.48E-05,  avg # of iterations =  6.0

     negative rho (up, down):  1.589E-04 0.000E+00

     add environment contribution to local potential
     polarization accuracy = 4.0E-13, # of iterations =  49

     total cpu time spent up to now is       78.4 secs

     total energy              =    -735.32329752 Ry
     Harris-Foulkes estimate   =    -749.58926680 Ry
     estimated scf accuracy    <       0.02894897 Ry
     solvation energy          =       0.00995341 Ry
     periodic energy correct.  =       0.21565575 Ry

     iteration #  7     ecut=    35.00 Ry     beta=0.20
     Davidson diagonalization with overlap
     ethr =  3.25E-05,  avg # of iterations =  5.0

     negative rho (up, down):  1.516E-04 0.000E+00

     add environment contribution to local potential
     polarization accuracy = 4.7E-13, # of iterations =  42

     total cpu time spent up to now is       92.8 secs

     total energy              =    -735.33433606 Ry
     Harris-Foulkes estimate   =    -747.89693987 Ry
     estimated scf accuracy    <       0.01027319 Ry
     solvation energy          =       0.00403795 Ry
     periodic energy correct.  =       0.21059381 Ry

     iteration #  8     ecut=    35.00 Ry     beta=0.20
     Davidson diagonalization with overlap
     ethr =  1.15E-05,  avg # of iterations =  1.0

     negative rho (up, down):  1.568E-04 0.000E+00

     add environment contribution to local potential
     polarization accuracy = 4.7E-13, # of iterations =  45

     total cpu time spent up to now is      107.0 secs

     total energy              =    -735.33316521 Ry
     Harris-Foulkes estimate   =    -747.71024434 Ry
     estimated scf accuracy    <       0.00453082 Ry
     solvation energy          =       0.00266402 Ry
     periodic energy correct.  =       0.21025030 Ry

     iteration #  9     ecut=    35.00 Ry     beta=0.20
     Davidson diagonalization with overlap
     ethr =  5.09E-06,  avg # of iterations = 10.0

     negative rho (up, down):  1.541E-04 0.000E+00

     add environment contribution to local potential
     polarization accuracy = 3.9E-13, # of iterations =  43

     total cpu time spent up to now is      121.4 secs

     total energy              =    -735.33453720 Ry
     Harris-Foulkes estimate   =    -747.39560433 Ry
     estimated scf accuracy    <       0.00515398 Ry
     solvation energy          =       0.00061634 Ry
     periodic energy correct.  =       0.20990541 Ry

     iteration # 10     ecut=    35.00 Ry     beta=0.20
     Davidson diagonalization with overlap
     ethr =  5.09E-06,  avg # of iterations =  1.0

     negative rho (up, down):  1.513E-04 0.000E+00

     add environment contribution to local potential
     polarization accuracy = 5.0E-13, # of iterations =  41

     total cpu time spent up to now is      134.8 secs

     total energy              =    -735.33490164 Ry
     Harris-Foulkes estimate   =    -747.27669289 Ry
     estimated scf accuracy    <       0.00222847 Ry
     solvation energy          =      -0.00073534 Ry
     periodic energy correct.  =       0.20994201 Ry

     iteration # 11     ecut=    35.00 Ry     beta=0.20
     Davidson diagonalization with overlap
     ethr =  2.50E-06,  avg # of iterations =  3.0

     negative rho (up, down):  1.498E-04 0.000E+00

     add environment contribution to local potential
     polarization accuracy = 4.4E-13, # of iterations =  41

     total cpu time spent up to now is      148.5 secs

     total energy              =    -735.33508174 Ry
     Harris-Foulkes estimate   =    -747.15143290 Ry
     estimated scf accuracy    <       0.00033030 Ry
     solvation energy          =      -0.00169118 Ry
     periodic energy correct.  =       0.20977953 Ry

     iteration # 12     ecut=    35.00 Ry     beta=0.20
     Davidson diagonalization with overlap
     ethr =  3.71E-07,  avg # of iterations =  1.0

     negative rho (up, down):  1.472E-04 0.000E+00

     add environment contribution to local potential
     polarization accuracy = 4.4E-13, # of iterations =  38

     total cpu time spent up to now is      161.5 secs

     total energy              =    -735.33539795 Ry
     Harris-Foulkes estimate   =    -747.05325916 Ry
     estimated scf accuracy    <       0.00042046 Ry
     solvation energy          =      -0.00245192 Ry
     periodic energy correct.  =       0.20964036 Ry

     iteration # 13     ecut=    35.00 Ry     beta=0.20
     Davidson diagonalization with overlap
     ethr =  3.71E-07,  avg # of iterations =  1.0

     negative rho (up, down):  1.455E-04 0.000E+00

     add environment contribution to local potential
     polarization accuracy = 4.2E-13, # of iterations =  38

     total cpu time spent up to now is      174.7 secs

     total energy              =    -735.33556435 Ry
     Harris-Foulkes estimate   =    -746.99540946 Ry
     estimated scf accuracy    <       0.00002264 Ry
     solvation energy          =      -0.00285475 Ry
     periodic energy correct.  =       0.20953139 Ry

     iteration # 14     ecut=    35.00 Ry     beta=0.20
     Davidson diagonalization with overlap
     ethr =  2.54E-08,  avg # of iterations =  2.0

     negative rho (up, down):  1.443E-04 0.000E+00

     add environment contribution to local potential
     polarization accuracy = 4.2E-13, # of iterations =  37

     total cpu time spent up to now is      188.0 secs

     total energy              =    -735.33565235 Ry
     Harris-Foulkes estimate   =    -746.96312907 Ry
     estimated scf accuracy    <       0.00000598 Ry
     solvation energy          =      -0.00317646 Ry
     periodic energy correct.  =       0.20953774 Ry

     iteration # 15     ecut=    35.00 Ry     beta=0.20
     Davidson diagonalization with overlap
     ethr =  6.72E-09,  avg # of iterations =  2.0

     negative rho (up, down):  1.435E-04 0.000E+00

     add environment contribution to local potential
     polarization accuracy = 4.2E-13, # of iterations =  37

     total cpu time spent up to now is      201.2 secs

     total energy              =    -735.33569414 Ry
     Harris-Foulkes estimate   =    -746.94227607 Ry
     estimated scf accuracy    <       0.00000367 Ry
     solvation energy          =      -0.00339066 Ry
     periodic energy correct.  =       0.20952918 Ry

     iteration # 16     ecut=    35.00 Ry     beta=0.20
     Davidson diagonalization with overlap
     ethr =  4.13E-09,  avg # of iterations =  2.0

     negative rho (up, down):  1.431E-04 0.000E+00

     add environment contribution to local potential
     polarization accuracy = 3.8E-13, # of iterations =  37

     total cpu time spent up to now is      213.8 secs

     total energy              =    -735.33570213 Ry
     Harris-Foulkes estimate   =    -746.92765257 Ry
     estimated scf accuracy    <       0.00000144 Ry
     solvation energy          =      -0.00357207 Ry
     periodic energy correct.  =       0.20953692 Ry

     iteration # 17     ecut=    35.00 Ry     beta=0.20
     Davidson diagonalization with overlap
     ethr =  1.62E-09,  avg # of iterations =  2.0

     negative rho (up, down):  1.430E-04 0.000E+00

     add environment contribution to local potential
     polarization accuracy = 4.0E-13, # of iterations =  34

     total cpu time spent up to now is      227.0 secs

     total energy              =    -735.33576518 Ry
     Harris-Foulkes estimate   =    -746.91358283 Ry
     estimated scf accuracy    <       0.00000063 Ry
     solvation energy          =      -0.00370164 Ry
     periodic energy correct.  =       0.20953372 Ry

     iteration # 18     ecut=    35.00 Ry     beta=0.20
     Davidson diagonalization with overlap
     ethr =  7.11E-10,  avg # of iterations =  2.0

     negative rho (up, down):  1.429E-04 0.000E+00

     add environment contribution to local potential
     polarization accuracy = 5.0E-13, # of iterations =  33

     total cpu time spent up to now is      239.7 secs

     total energy              =    -735.33576972 Ry
     Harris-Foulkes estimate   =    -746.90779560 Ry
     estimated scf accuracy    <       0.00000035 Ry
     solvation energy          =      -0.00376394 Ry
     periodic energy correct.  =       0.20953013 Ry

     iteration # 19     ecut=    35.00 Ry     beta=0.20
     Davidson diagonalization with overlap
     ethr =  3.95E-10,  avg # of iterations =  2.0

     negative rho (up, down):  1.430E-04 0.000E+00

     add environment contribution to local potential
     polarization accuracy = 4.3E-13, # of iterations =  34

     total cpu time spent up to now is      252.8 secs

     total energy              =    -735.33576758 Ry
     Harris-Foulkes estimate   =    -746.90230758 Ry
     estimated scf accuracy    <       0.00000032 Ry
     solvation energy          =      -0.00381707 Ry
     periodic energy correct.  =       0.20952232 Ry

     iteration # 20     ecut=    35.00 Ry     beta=0.20
     Davidson diagonalization with overlap
     ethr =  3.56E-10,  avg # of iterations =  3.0

     negative rho (up, down):  1.430E-04 0.000E+00

     add environment contribution to local potential
     polarization accuracy = 5.0E-13, # of iterations =  31

     total cpu time spent up to now is      265.4 secs

     total energy              =    -735.33578854 Ry
     Harris-Foulkes estimate   =    -746.89684137 Ry
     estimated scf accuracy    <       0.00000008 Ry
     solvation energy          =      -0.00386445 Ry
     periodic energy correct.  =       0.20951263 Ry

     iteration # 21     ecut=    35.00 Ry     beta=0.20
     Davidson diagonalization with overlap
     ethr =  9.11E-11,  avg # of iterations =  3.0

     negative rho (up, down):  1.431E-04 0.000E+00

     add environment contribution to local potential
     polarization accuracy = 3.8E-13, # of iterations =  26

     total cpu time spent up to now is      277.5 secs

     total energy              =    -735.33581283 Ry
     Harris-Foulkes estimate   =    -746.89363082 Ry
     estimated scf accuracy    <       0.00000002 Ry
     solvation energy          =      -0.00388532 Ry
     periodic energy correct.  =       0.20950779 Ry

     iteration # 22     ecut=    35.00 Ry     beta=0.20
     Davidson diagonalization with overlap
     ethr =  2.56E-11,  avg # of iterations =  2.0

     negative rho (up, down):  1.432E-04 0.000E+00

     add environment contribution to local potential
     polarization accuracy = 3.9E-13, # of iterations =  29

     total cpu time spent up to now is      289.8 secs

     total energy              =    -735.33580400 Ry
     Harris-Foulkes estimate   =    -746.89347054 Ry
     estimated scf accuracy    <       0.00000008 Ry
     solvation energy          =      -0.00389059 Ry
     periodic energy correct.  =       0.20950659 Ry

     iteration # 23     ecut=    35.00 Ry     beta=0.20
     Davidson diagonalization with overlap
     ethr =  2.56E-11,  avg # of iterations =  2.0

     negative rho (up, down):  1.433E-04 0.000E+00

     add environment contribution to local potential
     polarization accuracy = 3.9E-13, # of iterations =  26

     total cpu time spent up to now is      301.4 secs

     total energy              =    -735.33581348 Ry
     Harris-Foulkes estimate   =    -746.89215389 Ry
     estimated scf accuracy    <          7.7E-09 Ry
     solvation energy          =      -0.00390003 Ry
     periodic energy correct.  =       0.20950531 Ry

     iteration # 24     ecut=    35.00 Ry     beta=0.20
     Davidson diagonalization with overlap
     ethr =  8.63E-12,  avg # of iterations =  3.0

     negative rho (up, down):  1.438E-04 0.000E+00

     total cpu time spent up to now is      308.9 secs

     End of self-consistent calculation

          k = 0.0000 0.0000 0.0000 ( 14571 PWs)   bands (ev):

   -29.9759 -16.5131 -14.9263 -13.6523 -13.4702 -12.8599 -12.8369 -12.7649
   -12.5844 -11.7209 -11.5994 -11.4736 -11.2585 -11.2340 -11.1562 -11.0220
   -10.3203 -10.2944 -10.2340 -10.0420 -10.0211  -9.9706  -9.9337  -9.8865
    -9.8681  -9.6849  -9.6563  -9.5286  -9.4404  -9.2059  -9.1149  -8.3382
    -8.2342  -7.9480  -7.7284  -7.6669  -7.5979  -7.4529  -7.2668  -7.1814
    -7.0130  -6.9989  -6.7863  -6.7858  -6.7485  -6.5887  -6.4256  -5.2717
    -5.0533  -4.9730  -4.2936  -3.6564  -3.4956  -2.4710  -2.1952  -2.1574
    -1.4760  -1.1645  -0.8553  -0.4634  -0.3728   0.2153   0.6490   0.8944
     1.4335   1.7096   1.9192   2.1310   2.2299   2.4824   3.0958   3.2370
     3.3841   3.4589   3.8875   4.1473   4.2134   4.2475   4.5287   4.6296

     occupation numbers 
     1.0000   1.0000   1.0000   1.0000   1.0000   1.0000   1.0000   1.0000
     1.0000   1.0000   1.0000   1.0000   1.0000   1.0000   1.0000   1.0000
     1.0000   1.0000   1.0000   1.0000   1.0000   1.0000   1.0000   1.0000
     1.0000   1.0000   1.0000   1.0000   1.0000   1.0000   1.0000   1.0000
     1.0000   1.0006   1.0063   1.0107   1.0181   1.0440   1.0812   1.0800
     0.9883   0.9739   0.6473   0.6464   0.5776   0.3050   0.1205   0.0000
     0.0000   0.0000   0.0000   0.0000   0.0000   0.0000   0.0000   0.0000
     0.0000   0.0000   0.0000   0.0000   0.0000   0.0000   0.0000   0.0000
     0.0000   0.0000   0.0000   0.0000   0.0000   0.0000   0.0000   0.0000
     0.0000   0.0000   0.0000   0.0000   0.0000   0.0000   0.0000   0.0000

     the Fermi energy is    -6.6493 ev

!    total energy              =    -735.33581468 Ry
     Harris-Foulkes estimate   =    -746.89209346 Ry
     estimated scf accuracy    <          4.2E-09 Ry

     The total energy is the sum of the following terms:

     one-electron contribution =   -3944.39043643 Ry
     hartree contribution      =    2002.99662240 Ry
     xc contribution           =    -378.70223068 Ry
     ewald contribution        =    1573.20467954 Ry
     smearing contrib. (-TS)   =      -0.00072829 Ry
     solvation energy          =      -0.00390087 Ry
     periodic energy correct.  =       0.20950496 Ry

     convergence has been achieved in  24 iterations

     Forces acting on atoms (Ry/au):


     negative rho (up, down):  1.438E-04 0.000E+00
     The dielectric solvent contribution to forces
     atom    1 type  1   force =     0.00009121    0.00581783   -0.06225400
     atom    2 type  2   force =     0.00005461    0.00424245   -0.33198066
     atom    3 type  3   force =    -0.00086178   -0.00376643    0.11964038
     atom    4 type  3   force =     0.00087537   -0.00378150    0.11970588
     atom    5 type  3   force =    -0.00016359    0.00209585    0.09619048
     atom    6 type  3   force =     0.00009286    0.00501213    0.07857454
     atom    7 type  3   force =    -0.00048355    0.00749337   -0.14914148
     atom    8 type  3   force =     0.00040262    0.00881714   -0.13852787
     atom    9 type  3   force =    -0.00906278   -0.00717199   -0.16000142
     atom   10 type  3   force =     0.00909525   -0.00721354   -0.16063646
     The global environment contribution to forces
     atom    1 type  1   force =     0.00009121    0.00581783   -0.05845439
     atom    2 type  2   force =     0.00005461    0.00424245   -0.32529868
     atom    3 type  3   force =    -0.00086178   -0.00376643    0.12620145
     atom    4 type  3   force =     0.00087537   -0.00378150    0.12626694
     atom    5 type  3   force =    -0.00016359    0.00209585    0.10273398
     atom    6 type  3   force =     0.00009286    0.00501213    0.08542728
     atom    7 type  3   force =    -0.00048355    0.00749337   -0.14587810
     atom    8 type  3   force =     0.00040262    0.00881714   -0.13515261
     atom    9 type  3   force =    -0.00906278   -0.00717199   -0.15667506
     atom   10 type  3   force =     0.00909525   -0.00721354   -0.15731011
 
     atom    1 type  1   force =    -0.00001666   -0.00443834    0.08364242
     atom    2 type  2   force =     0.00006361    0.00143397   -0.05961745
     atom    3 type  3   force =     0.00038325    0.01399629    0.03289708
     atom    4 type  3   force =     0.00064310    0.01428625    0.03360091
     atom    5 type  3   force =    -0.00182014    0.01276463   -0.00361572
     atom    6 type  3   force =     0.00080007    0.00783016    0.04262106
     atom    7 type  3   force =    -0.00153328   -0.01434271   -0.03748443
     atom    8 type  3   force =     0.00044799   -0.02018166   -0.02058070
     atom    9 type  3   force =     0.01752712   -0.00585555   -0.03595757
     atom   10 type  3   force =    -0.01649508   -0.00549304   -0.03550561
     The non-local contrib.  to forces
     atom    1 type  1   force =    -0.00008467   -0.00750930    0.58230672
     atom    2 type  2   force =     0.00019485    0.03855064   -2.92598169
     atom    3 type  3   force =    -0.02658355   -0.00122880   -0.10393994
     atom    4 type  3   force =     0.02668758   -0.00106095   -0.10440020
     atom    5 type  3   force =     0.00100058    0.00436254   -0.15558273
     atom    6 type  3   force =    -0.00081097   -0.01671876    0.50072373
     atom    7 type  3   force =     0.00061455    0.02491481    0.06483630
     atom    8 type  3   force =    -0.00091673   -0.01816413    0.09224325
     atom    9 type  3   force =     0.01906579   -0.00382674    0.05457929
     atom   10 type  3   force =    -0.01897165   -0.00349983    0.05337274
     The ionic contribution  to forces
     atom    1 type  1   force =     0.00636806    0.05296760   19.96835427
     atom    2 type  2   force =     0.00226724   -0.13041391   48.33963012
     atom    3 type  3   force =     0.50324609   -0.09020628   30.03736972
     atom    4 type  3   force =    -0.49292694   -0.08303178   30.06216876
     atom    5 type  3   force =    -0.07802400    0.12039865   29.68099553
     atom    6 type  3   force =     0.05586768    0.10046245   29.12582959
     atom    7 type  3   force =    -0.06942211   -0.08855591  -48.10896481
     atom    8 type  3   force =     0.05843526    0.13450123  -45.70999247
     atom    9 type  3   force =     0.08482129   -0.01166389  -46.71013044
     atom   10 type  3   force =    -0.07063256   -0.00445817  -46.68526027
     The local contribution  to forces
     atom    1 type  1   force =    -0.00639657   -0.05570520  -20.40847330
     atom    2 type  2   force =    -0.00245860    0.08906216  -45.14791099
     atom    3 type  3   force =    -0.47811515    0.11274323  -30.01611954
     atom    4 type  3   force =     0.46886940    0.10561560  -30.03999662
     atom    5 type  3   force =     0.07491657   -0.11038118  -29.62745885
     atom    6 type  3   force =    -0.05409515   -0.07721368  -29.73799212
     atom    7 type  3   force =     0.06725451    0.03425474   48.13898405
     atom    8 type  3   force =    -0.05711506   -0.14096045   45.71621398
     atom    9 type  3   force =    -0.08461902    0.01257394   46.75938830
     atom   10 type  3   force =     0.07151961    0.00541745   46.73664184
     The core correction contribution to forces
     atom    1 type  1   force =     0.00000000    0.00000000    0.00000000
     atom    2 type  2   force =     0.00000000    0.00000000    0.00000000
     atom    3 type  3   force =     0.00270056   -0.00353862   -0.01043889
     atom    4 type  3   force =    -0.00287617   -0.00344833   -0.01026102
     atom    5 type  3   force =     0.00044346   -0.00370297   -0.00410972
     atom    6 type  3   force =    -0.00025836   -0.00369936    0.06878331
     atom    7 type  3   force =     0.00049683    0.00755108    0.01370440
     atom    8 type  3   force =    -0.00036203   -0.00437117    0.01623416
     atom    9 type  3   force =     0.00734640    0.00424994    0.01705542
     atom   10 type  3   force =    -0.00754117    0.00427767    0.01722887
     The Hubbard contrib.    to forces
     atom    1 type  1   force =     0.00000000    0.00000000    0.00000000
     atom    2 type  2   force =     0.00000000    0.00000000    0.00000000
     atom    3 type  3   force =     0.00000000    0.00000000    0.00000000
     atom    4 type  3   force =     0.00000000    0.00000000    0.00000000
     atom    5 type  3   force =     0.00000000    0.00000000    0.00000000
     atom    6 type  3   force =     0.00000000    0.00000000    0.00000000
     atom    7 type  3   force =     0.00000000    0.00000000    0.00000000
     atom    8 type  3   force =     0.00000000    0.00000000    0.00000000
     atom    9 type  3   force =     0.00000000    0.00000000    0.00000000
     atom   10 type  3   force =     0.00000000    0.00000000    0.00000000
     The SCF correction term to forces
     atom    1 type  1   force =    -0.00000010   -0.00000066    0.00001760
     atom    2 type  2   force =     0.00000009    0.00000124    0.00005227
     atom    3 type  3   force =    -0.00000833    0.00000179   -0.00006723
     atom    4 type  3   force =     0.00000843    0.00000182   -0.00006847
     atom    5 type  3   force =     0.00000142    0.00000034   -0.00008544
     atom    6 type  3   force =    -0.00000142   -0.00000402   -0.00004222
     atom    7 type  3   force =     0.00000106    0.00000780   -0.00005776
     atom    8 type  3   force =    -0.00000148    0.00000431   -0.00001852
     atom    9 type  3   force =    -0.00002998   -0.00000820   -0.00006660
     atom   10 type  3   force =     0.00003002   -0.00000800   -0.00007020

     Total force =     0.144510     Total SCF correction =     0.000191

     Writing output data file PtCO_water.save
 
     init_run     :      6.83s CPU      6.91s WALL (       1 calls)
     electrons    :    294.72s CPU    301.75s WALL (       1 calls)
     forces       :      8.75s CPU      8.93s WALL (       1 calls)

     Called by init_run:
     wfcinit      :      0.68s CPU      0.69s WALL (       1 calls)
     potinit      :      2.12s CPU      2.13s WALL (       1 calls)

     Called by electrons:
     c_bands      :     50.71s CPU     52.42s WALL (      24 calls)
     sum_band     :     54.62s CPU     55.76s WALL (      24 calls)
     v_of_rho     :      7.06s CPU      7.31s WALL (      25 calls)
     v_h          :      2.14s CPU      2.29s WALL (      91 calls)
     v_xc         :      6.72s CPU      6.96s WALL (      26 calls)
     newd         :     57.79s CPU     59.19s WALL (      25 calls)
     mix_rho      :      1.84s CPU      1.86s WALL (      24 calls)

     Called by c_bands:
     init_us_2    :      0.32s CPU      0.36s WALL (      49 calls)
     cegterg      :     49.70s CPU     51.34s WALL (      24 calls)

     Called by sum_band:
     sum_band:bec :      0.00s CPU      0.01s WALL (      24 calls)
     addusdens    :     41.97s CPU     42.86s WALL (      24 calls)

     Called by *egterg:
     h_psi        :     39.74s CPU     40.32s WALL (     101 calls)
     s_psi        :      1.66s CPU      1.66s WALL (     101 calls)
     g_psi        :      0.26s CPU      0.26s WALL (      76 calls)
     cdiaghg      :      1.38s CPU      1.37s WALL (     100 calls)
     cegterg:over :      2.68s CPU      2.77s WALL (      76 calls)
     cegterg:upda :      1.94s CPU      2.01s WALL (      76 calls)
     cegterg:last :      1.06s CPU      1.07s WALL (      24 calls)

     Called by h_psi:
     h_psi:vloc   :     36.16s CPU     36.70s WALL (     101 calls)
     h_psi:vnl    :      3.38s CPU      3.42s WALL (     101 calls)
     add_vuspsi   :      1.66s CPU      1.65s WALL (     101 calls)

     General routines
     calbec       :      2.47s CPU      2.54s WALL (     126 calls)
     fft          :     63.57s CPU     65.01s WALL (    3840 calls)
     ffts         :      0.28s CPU      0.26s WALL (      49 calls)
     fftw         :     33.45s CPU     33.85s WALL (   10642 calls)
     interpolate  :      1.28s CPU      1.30s WALL (      49 calls)
     davcio       :      0.00s CPU      0.00s WALL (       1 calls)
 
     Parallel routines
     fft_scatter  :     48.55s CPU     49.49s WALL (   14531 calls)
 
     Environ routines
     calc_esolv   :      1.14s CPU      1.16s WALL (      24 calls)
     calc_vsolv   :    119.05s CPU    121.46s WALL (      21 calls)
     dielectric   :      2.78s CPU      2.87s WALL (      21 calls)
     get_rhopol   :    115.18s CPU    117.48s WALL (      21 calls)
     calc_veps    :      2.76s CPU      2.78s WALL (      21 calls)
     calc_epbc    :      0.01s CPU      0.03s WALL (      24 calls)
     calc_vpbc    :      0.42s CPU      0.43s WALL (      21 calls)
     calc_fpbc    :      0.00s CPU      0.00s WALL (       1 calls)
 
     PWSCF        :  5m10.66s CPU     5m17.96s WALL

 
   This run was terminated on:  16:35:27  30May2014            

=------------------------------------------------------------------------------=
   JOB DONE.
=------------------------------------------------------------------------------=
