
     Program PWSCF v.6.1 (svn rev. 13369) starts on 30Jan2018 at 13:11:20 

     This program is part of the open-source Quantum ESPRESSO suite
     for quantum simulation of materials; please cite
         "P. Giannozzi et al., J. Phys.:Condens. Matter 21 395502 (2009);
          URL http://www.quantum-espresso.org", 
     in publications or presentations arising from this work. More details at
     http://www.quantum-espresso.org/quote

     Parallel version (MPI), running on     1 processors
     Waiting for input...
     Reading input from standard input

     Current dimensions of program PWSCF are:
     Max number of different atomic species (ntypx) = 10
     Max number of k-points (npk) =  40000
     Max angular momentum in pseudopotentials (lmaxx) =  3
               file C.pbe-rrkjus.UPF: wavefunction(s)  2S 2P renormalized
               file O.pbe-rrkjus.UPF: wavefunction(s)  2S renormalized

     Subspace diagonalization in iterative solution of the eigenvalue problem:
     a serial algorithm will be used

 
     G-vector sticks info
     --------------------
     sticks:   dense  smooth     PW     G-vecs:    dense   smooth      PW
     Sum        2205    1099    269               330909   116965   14571
 


     bravais-lattice index     =            8
     lattice parameter (alat)  =      10.6881  a.u.
     unit-cell volume          =    4181.1215 (a.u.)^3
     number of atoms/cell      =           10
     number of atomic types    =            3
     number of electrons       =        89.00
     number of Kohn-Sham states=           80
     kinetic-energy cutoff     =      35.0000  Ry
     charge density cutoff     =     280.0000  Ry
     convergence threshold     =      5.0E-09
     mixing beta               =       0.2000
     number of iterations used =            8  plain     mixing
     Exchange-correlation      =  SLA  PW   PBE  PBE ( 1  4  3  4 0 0)
 

     Environ Module
     ==============

     Plese cite
         O. Andreussi, I. Dabo and N. Marzari, J. Chem. Phys. 136, 064102 (2012)         
     in publications or presentations arising from this work.

     compensation onset threshold      =               0.1000E+01 

     Electrostatic Setup
     -------------------
     electrostatic problem to solve    = poisson                  
     numerical solver adopted          = direct                   
     type of auxiliary density adopted = none                     
     type of core tool for poisson     = fft                      
     type of core tool for s(r) deriv  = analytic                 



     celldm(1)=  10.688100  celldm(2)=   0.866025  celldm(3)=   3.954220
     celldm(4)=   0.000000  celldm(5)=   0.000000  celldm(6)=   0.000000

     crystal axes: (cart. coord. in units of alat)
               a(1) = (   1.000000   0.000000   0.000000 )  
               a(2) = (   0.000000   0.866025   0.000000 )  
               a(3) = (   0.000000   0.000000   3.954220 )  

     reciprocal axes: (cart. coord. in units 2 pi/alat)
               b(1) = (  1.000000  0.000000  0.000000 )  
               b(2) = (  0.000000  1.154701  0.000000 )  
               b(3) = (  0.000000  0.000000  0.252894 )  


     PseudoPot. # 1 for C  read from file:
     /home/fnattino/Programs/qe-6.1/pseudo/C.pbe-rrkjus.UPF
     MD5 check sum: 00fb224312de0c5b6853bd333518df6f
     Pseudo is Ultrasoft, Zval =  4.0
     Generated by new atomic code, or converted to UPF format
     Using radial grid of  627 points,  4 beta functions with: 
                l(1) =   0
                l(2) =   0
                l(3) =   1
                l(4) =   1
     Q(r) pseudized with 0 coefficients 


     PseudoPot. # 2 for O  read from file:
     /home/fnattino/Programs/qe-6.1/pseudo/O.pbe-rrkjus.UPF
     MD5 check sum: 390ba29e75625707450f3bd3f0eb6be9
     Pseudo is Ultrasoft, Zval =  6.0
     Generated by new atomic code, or converted to UPF format
     Using radial grid of 1269 points,  4 beta functions with: 
                l(1) =   0
                l(2) =   0
                l(3) =   1
                l(4) =   1
     Q(r) pseudized with 0 coefficients 


     PseudoPot. # 3 for Pt read from file:
     /home/fnattino/Programs/qe-6.1/pseudo/Pt.pbe-nd-rrkjus.UPF
     MD5 check sum: 1413c21c79e416b56dc03f2d0e22670c
     Pseudo is Ultrasoft + core correction, Zval = 10.0
     Generated by new atomic code, or converted to UPF format
     Using radial grid of 1547 points,  3 beta functions with: 
                l(1) =   1
                l(2) =   2
                l(3) =   2
     Q(r) pseudized with 0 coefficients 


     atomic species   valence    mass     pseudopotential
        C              4.00     1.00000     C ( 1.00)
        O              6.00     1.00000     O ( 1.00)
        Pt            10.00     1.00000     Pt( 1.00)

     No symmetry found


                                    s                        frac. trans.

      isym =  1     identity                                     

 cryst.   s( 1) = (     1          0          0      )
                  (     0          1          0      )
                  (     0          0          1      )

 cart.    s( 1) = (  1.0000000  0.0000000  0.0000000 )
                  (  0.0000000  1.0000000  0.0000000 )
                  (  0.0000000  0.0000000  1.0000000 )


     point group C_1 (1)    
     there are  1 classes
     the character table:

       E    
A      1.00

     the symmetry operations in each class and the name of the first element:

     E        1
          identity                                               

   Cartesian axes

     site n.     atom                  positions (alat units)
         1           C   tau(   1) = (   0.4991611   0.4347567   1.2070461  )
         2           O   tau(   2) = (   0.4991542   0.4322212   1.4109013  )
         3           Pt  tau(   3) = (   0.7542339   0.0091745   0.8413229  )
         4           Pt  tau(   4) = (   0.2441023   0.0091745   0.8413226  )
         5           Pt  tau(   5) = (   0.0000034   0.4416918   0.8391348  )
         6           Pt  tau(   6) = (   0.4991682   0.4417635   0.8776299  )
         7           Pt  tau(   7) = (   0.0000038   0.7300598   0.4308181  )
         8           Pt  tau(   8) = (   0.4991683   0.7202168   0.4447460  )
         9           Pt  tau(   9) = (   0.2524172   0.2949237   0.4386572  )
        10           Pt  tau(  10) = (   0.7459196   0.2949237   0.4386575  )

   Crystallographic axes

     site n.     atom                  positions (cryst. coord.)
         1           C   tau(   1) = (  0.4991611  0.5020141  0.3052552  )
         2           O   tau(   2) = (  0.4991542  0.4990863  0.3568090  )
         3           Pt  tau(   3) = (  0.7542339  0.0105938  0.2127658  )
         4           Pt  tau(   4) = (  0.2441023  0.0105938  0.2127658  )
         5           Pt  tau(   5) = (  0.0000034  0.5100220  0.2122125  )
         6           Pt  tau(   6) = (  0.4991682  0.5101048  0.2219477  )
         7           Pt  tau(   7) = (  0.0000038  0.8430008  0.1089515  )
         8           Pt  tau(   8) = (  0.4991683  0.8316351  0.1124738  )
         9           Pt  tau(   9) = (  0.2524172  0.3405487  0.1109339  )
        10           Pt  tau(  10) = (  0.7459196  0.3405488  0.1109340  )

     number of k points=     1  Marzari-Vanderbilt smearing, width (Ry)=  0.0300
                       cart. coord. in units 2pi/alat
        k(    1) = (   0.0000000   0.0000000   0.0000000), wk =   2.0000000

                       cryst. coord.
        k(    1) = (   0.0000000   0.0000000   0.0000000), wk =   2.0000000

     Dense  grid:   330909 G-vectors     FFT dimensions: (  60,  50, 225)

     Smooth grid:   116965 G-vectors     FFT dimensions: (  45,  36, 160)

     Estimated max dynamical RAM per process >     378.02MB

     Check: negative/imaginary core charge=   -0.000038    0.000000

     Initial potential from superposition of free atoms

     starting charge   89.99875, renormalised to   89.00000

     negative rho (up, down):  7.106E-05 0.000E+00
     Starting wfc are   56 randomized atomic wfcs +   24 random wfc

     total cpu time spent up to now is        5.4 secs

     per-process dynamical memory:   227.5 Mb

     Self-consistent Calculation

     iteration #  1     ecut=    35.00 Ry     beta=0.20
     Davidson diagonalization with overlap
     ethr =  1.00E-02,  avg # of iterations =  7.0

     negative rho (up, down):  7.727E-05 0.000E+00

     total cpu time spent up to now is        9.3 secs

     total energy              =    -735.17261808 Ry
     Harris-Foulkes estimate   =    -735.95156912 Ry
     estimated scf accuracy    <       2.31915284 Ry
     electrostatic embedding   =       0.03381190 Ry
     correction to one-el term =       0.00000000 Ry

     iteration #  2     ecut=    35.00 Ry     beta=0.20
     Davidson diagonalization with overlap
     ethr =  2.61E-03,  avg # of iterations =  4.0

     negative rho (up, down):  1.372E-04 0.000E+00

     total cpu time spent up to now is       12.1 secs

     total energy              =    -734.88816035 Ry
     Harris-Foulkes estimate   =    -736.43440607 Ry
     estimated scf accuracy    <      17.12182875 Ry
     electrostatic embedding   =       0.03381190 Ry
     correction to one-el term =       0.00000000 Ry

     iteration #  3     ecut=    35.00 Ry     beta=0.20
     Davidson diagonalization with overlap
     ethr =  2.61E-03,  avg # of iterations =  2.0

     negative rho (up, down):  1.084E-04 0.000E+00

     add environment contribution to local potential

     total cpu time spent up to now is       14.9 secs

     total energy              =    -735.53279167 Ry
     Harris-Foulkes estimate   =    -735.65117395 Ry
     estimated scf accuracy    <       0.52332249 Ry
     electrostatic embedding   =       0.03381190 Ry
     correction to one-el term =       0.00000000 Ry

     iteration #  4     ecut=    35.00 Ry     beta=0.20
     Davidson diagonalization with overlap
     ethr =  5.88E-04,  avg # of iterations =  6.0

     negative rho (up, down):  1.402E-04 0.000E+00

     add environment contribution to local potential

     total cpu time spent up to now is       18.0 secs

     total energy              =    -735.34035255 Ry
     Harris-Foulkes estimate   =    -751.47563734 Ry
     estimated scf accuracy    <       0.42185178 Ry
     electrostatic embedding   =       0.26936559 Ry
     correction to one-el term =      15.81448128 Ry

     iteration #  5     ecut=    35.00 Ry     beta=0.20
     Davidson diagonalization with overlap
     ethr =  4.74E-04,  avg # of iterations =  1.0

     negative rho (up, down):  1.353E-04 0.000E+00

     add environment contribution to local potential

     total cpu time spent up to now is       20.7 secs

     total energy              =    -735.31050350 Ry
     Harris-Foulkes estimate   =    -750.41225311 Ry
     estimated scf accuracy    <       0.15146655 Ry
     electrostatic embedding   =       0.25775153 Ry
     correction to one-el term =      14.80391615 Ry

     iteration #  6     ecut=    35.00 Ry     beta=0.20
     Davidson diagonalization with overlap
     ethr =  1.70E-04,  avg # of iterations =  3.0

     negative rho (up, down):  1.461E-04 0.000E+00

     add environment contribution to local potential

     total cpu time spent up to now is       23.6 secs

     total energy              =    -735.31926608 Ry
     Harris-Foulkes estimate   =    -748.76003542 Ry
     estimated scf accuracy    <       0.02281767 Ry
     electrostatic embedding   =       0.23943325 Ry
     correction to one-el term =      13.19581156 Ry

     iteration #  7     ecut=    35.00 Ry     beta=0.20
     Davidson diagonalization with overlap
     ethr =  2.56E-05,  avg # of iterations =  7.0

     negative rho (up, down):  1.808E-04 0.000E+00

     add environment contribution to local potential

     total cpu time spent up to now is       26.6 secs

     total energy              =    -735.31841284 Ry
     Harris-Foulkes estimate   =    -748.20424747 Ry
     estimated scf accuracy    <       0.02564902 Ry
     electrostatic embedding   =       0.23323076 Ry
     correction to one-el term =      12.64950153 Ry

     iteration #  8     ecut=    35.00 Ry     beta=0.20
     Davidson diagonalization with overlap
     ethr =  2.56E-05,  avg # of iterations =  1.0

     negative rho (up, down):  1.772E-04 0.000E+00

     add environment contribution to local potential

     total cpu time spent up to now is       29.4 secs

     total energy              =    -735.31824726 Ry
     Harris-Foulkes estimate   =    -747.83820553 Ry
     estimated scf accuracy    <       0.00651844 Ry
     electrostatic embedding   =       0.22916337 Ry
     correction to one-el term =      12.28950995 Ry

     iteration #  9     ecut=    35.00 Ry     beta=0.20
     Davidson diagonalization with overlap
     ethr =  7.32E-06,  avg # of iterations =  4.0

     negative rho (up, down):  1.759E-04 0.000E+00

     add environment contribution to local potential

     total cpu time spent up to now is       32.2 secs

     total energy              =    -735.31834381 Ry
     Harris-Foulkes estimate   =    -747.93640666 Ry
     estimated scf accuracy    <       0.00113779 Ry
     electrostatic embedding   =       0.23026499 Ry
     correction to one-el term =      12.38746156 Ry

     iteration # 10     ecut=    35.00 Ry     beta=0.20
     Davidson diagonalization with overlap
     ethr =  1.28E-06,  avg # of iterations =  3.0

     negative rho (up, down):  1.779E-04 0.000E+00

     add environment contribution to local potential

     total cpu time spent up to now is       35.1 secs

     total energy              =    -735.31850579 Ry
     Harris-Foulkes estimate   =    -748.02512903 Ry
     estimated scf accuracy    <       0.00084722 Ry
     electrostatic embedding   =       0.23125256 Ry
     correction to one-el term =      12.47528122 Ry

     iteration # 11     ecut=    35.00 Ry     beta=0.20
     Davidson diagonalization with overlap
     ethr =  9.52E-07,  avg # of iterations =  1.0

     negative rho (up, down):  1.757E-04 0.000E+00

     add environment contribution to local potential

     total cpu time spent up to now is       37.8 secs

     total energy              =    -735.31850970 Ry
     Harris-Foulkes estimate   =    -747.99064473 Ry
     estimated scf accuracy    <       0.00137380 Ry
     electrostatic embedding   =       0.23086533 Ry
     correction to one-el term =      12.44119054 Ry

     iteration # 12     ecut=    35.00 Ry     beta=0.20
     Davidson diagonalization with overlap
     ethr =  9.52E-07,  avg # of iterations =  1.0

     negative rho (up, down):  1.779E-04 0.000E+00

     add environment contribution to local potential

     total cpu time spent up to now is       40.5 secs

     total energy              =    -735.31848439 Ry
     Harris-Foulkes estimate   =    -747.96701910 Ry
     estimated scf accuracy    <       0.00019518 Ry
     electrostatic embedding   =       0.23059949 Ry
     correction to one-el term =      12.41788709 Ry

     iteration # 13     ecut=    35.00 Ry     beta=0.20
     Davidson diagonalization with overlap
     ethr =  2.19E-07,  avg # of iterations =  2.0

     negative rho (up, down):  1.767E-04 0.000E+00

     add environment contribution to local potential

     total cpu time spent up to now is       43.3 secs

     total energy              =    -735.31850462 Ry
     Harris-Foulkes estimate   =    -747.93297813 Ry
     estimated scf accuracy    <       0.00001199 Ry
     electrostatic embedding   =       0.23021748 Ry
     correction to one-el term =      12.38425383 Ry

     iteration # 14     ecut=    35.00 Ry     beta=0.20
     Davidson diagonalization with overlap
     ethr =  1.35E-08,  avg # of iterations =  1.0

     negative rho (up, down):  1.768E-04 0.000E+00

     add environment contribution to local potential

     total cpu time spent up to now is       46.0 secs

     total energy              =    -735.31850526 Ry
     Harris-Foulkes estimate   =    -747.93544987 Ry
     estimated scf accuracy    <       0.00001771 Ry
     electrostatic embedding   =       0.23024492 Ry
     correction to one-el term =      12.38669832 Ry

     iteration # 15     ecut=    35.00 Ry     beta=0.20
     Davidson diagonalization with overlap
     ethr =  1.35E-08,  avg # of iterations =  1.0

     negative rho (up, down):  1.769E-04 0.000E+00

     add environment contribution to local potential

     total cpu time spent up to now is       48.7 secs

     total energy              =    -735.31850579 Ry
     Harris-Foulkes estimate   =    -747.93547261 Ry
     estimated scf accuracy    <       0.00000143 Ry
     electrostatic embedding   =       0.23024499 Ry
     correction to one-el term =      12.38672164 Ry

     iteration # 16     ecut=    35.00 Ry     beta=0.20
     Davidson diagonalization with overlap
     ethr =  1.61E-09,  avg # of iterations =  2.0

     negative rho (up, down):  1.768E-04 0.000E+00

     add environment contribution to local potential

     total cpu time spent up to now is       51.5 secs

     total energy              =    -735.31850589 Ry
     Harris-Foulkes estimate   =    -747.93752120 Ry
     estimated scf accuracy    <       0.00000023 Ry
     electrostatic embedding   =       0.23026789 Ry
     correction to one-el term =      12.38874742 Ry

     iteration # 17     ecut=    35.00 Ry     beta=0.20
     Davidson diagonalization with overlap
     ethr =  2.57E-10,  avg # of iterations =  1.0

     negative rho (up, down):  1.768E-04 0.000E+00

     add environment contribution to local potential

     total cpu time spent up to now is       54.3 secs

     total energy              =    -735.31850590 Ry
     Harris-Foulkes estimate   =    -747.93753819 Ry
     estimated scf accuracy    <       0.00000015 Ry
     electrostatic embedding   =       0.23026811 Ry
     correction to one-el term =      12.38876418 Ry

     iteration # 18     ecut=    35.00 Ry     beta=0.20
     Davidson diagonalization with overlap
     ethr =  1.65E-10,  avg # of iterations =  1.0

     negative rho (up, down):  1.770E-04 0.000E+00

     add environment contribution to local potential

     total cpu time spent up to now is       57.0 secs

     total energy              =    -735.31850590 Ry
     Harris-Foulkes estimate   =    -747.93739582 Ry
     estimated scf accuracy    <       0.00000007 Ry
     electrostatic embedding   =       0.23026653 Ry
     correction to one-el term =      12.38862339 Ry

     iteration # 19     ecut=    35.00 Ry     beta=0.20
     Davidson diagonalization with overlap
     ethr =  8.10E-11,  avg # of iterations =  1.0

     negative rho (up, down):  1.771E-04 0.000E+00

     add environment contribution to local potential

     total cpu time spent up to now is       59.7 secs

     total energy              =    -735.31850590 Ry
     Harris-Foulkes estimate   =    -747.93667391 Ry
     estimated scf accuracy    <       0.00000003 Ry
     electrostatic embedding   =       0.23025846 Ry
     correction to one-el term =      12.38790955 Ry

     iteration # 20     ecut=    35.00 Ry     beta=0.20
     Davidson diagonalization with overlap
     ethr =  3.18E-11,  avg # of iterations =  1.0

     negative rho (up, down):  1.773E-04 0.000E+00

     add environment contribution to local potential

     total cpu time spent up to now is       62.4 secs

     total energy              =    -735.31850591 Ry
     Harris-Foulkes estimate   =    -747.93639581 Ry
     estimated scf accuracy    <          5.9E-09 Ry
     electrostatic embedding   =       0.23025536 Ry
     correction to one-el term =      12.38763455 Ry

     iteration # 21     ecut=    35.00 Ry     beta=0.20
     Davidson diagonalization with overlap
     ethr =  6.59E-12,  avg # of iterations =  1.0

     negative rho (up, down):  1.774E-04 0.000E+00

     add environment contribution to local potential

     total cpu time spent up to now is       65.2 secs

     total energy              =    -735.31850591 Ry
     Harris-Foulkes estimate   =    -747.93632574 Ry
     estimated scf accuracy    <          8.9E-09 Ry
     electrostatic embedding   =       0.23025458 Ry
     correction to one-el term =      12.38756525 Ry

     iteration # 22     ecut=    35.00 Ry     beta=0.20
     Davidson diagonalization with overlap
     ethr =  6.59E-12,  avg # of iterations =  1.0

     negative rho (up, down):  1.782E-04 0.000E+00

     total cpu time spent up to now is       67.8 secs

     End of self-consistent calculation

          k = 0.0000 0.0000 0.0000 ( 14571 PWs)   bands (ev):

   -29.0471 -16.0140 -14.6763 -13.3400 -12.6292 -12.5222 -12.2193 -12.1834
   -12.0346 -11.3970 -11.3877 -11.1572 -11.0753 -11.0623 -10.9529 -10.8329
   -10.1050 -10.0580  -9.9927  -9.8548  -9.8048  -9.7902  -9.7386  -9.7113
    -9.6947  -9.5062  -9.4802  -9.3373  -9.2258  -9.0103  -8.9435  -8.1282
    -8.0392  -7.8085  -7.5519  -7.5028  -7.4413  -7.2832  -7.1128  -7.0163
    -6.8437  -6.8341  -6.6181  -6.6159  -6.5805  -6.4174  -6.2442  -5.0883
    -4.8497  -4.8179  -4.1026  -3.5369  -3.1856  -2.0089  -1.8633  -1.7155
    -0.6942  -0.2592   0.7645   1.0764   1.1990   1.7782   2.1853   2.4530
     2.4839   3.2886   4.1504   4.8898   5.0012   5.1752   5.4182   5.6783
     5.9949   6.0767   6.5358   6.9516   7.0514   7.3140   7.6961   7.7514

     occupation numbers 
     1.0000   1.0000   1.0000   1.0000   1.0000   1.0000   1.0000   1.0000
     1.0000   1.0000   1.0000   1.0000   1.0000   1.0000   1.0000   1.0000
     1.0000   1.0000   1.0000   1.0000   1.0000   1.0000   1.0000   1.0000
     1.0000   1.0000   1.0000   1.0000   1.0000   1.0000   1.0000   1.0000
     1.0000   1.0004   1.0067   1.0101   1.0164   1.0439   1.0793   1.0808
     0.9891   0.9794   0.6507   0.6467   0.5814   0.3033   0.1118   0.0000
     0.0000   0.0000   0.0000   0.0000   0.0000   0.0000   0.0000   0.0000
     0.0000   0.0000   0.0000   0.0000   0.0000   0.0000   0.0000   0.0000
     0.0000   0.0000   0.0000   0.0000   0.0000   0.0000   0.0000   0.0000
     0.0000   0.0000   0.0000   0.0000   0.0000   0.0000   0.0000   0.0000

     the Fermi energy is    -6.4792 ev

!    total energy              =    -735.31850590 Ry
     Harris-Foulkes estimate   =    -747.93617704 Ry
     estimated scf accuracy    <          1.9E-09 Ry

     The total energy is the sum of the following terms:

     one-electron contribution =   -3948.25428191 Ry
     hartree contribution      =    2005.74744964 Ry
     xc contribution           =    -378.63364893 Ry
     ewald contribution        =    1573.20467954 Ry
     smearing contrib. (-TS)   =      -0.00037537 Ry
     electrostatic embedding   =       0.23025291 Ry
     correction to one-el term =      12.38741822 Ry

     the Fermi energy shift due to the parabolic pbc-correction is    -0.4600 ev

     convergence has been achieved in  22 iterations

     negative rho (up, down):  1.782E-04 0.000E+00
     The global environment contribution to forces
     atom    1 type  1   force =     0.00000000    0.00000000    0.12401947
     atom    2 type  2   force =     0.00000000    0.00000000    0.26461075
     atom    3 type  3   force =     0.00000000    0.00000000    0.07508529
     atom    4 type  3   force =     0.00000000    0.00000000    0.07508515
     atom    5 type  3   force =     0.00000000    0.00000000    0.07367956
     atom    6 type  3   force =     0.00000000    0.00000000    0.09841121
     atom    7 type  3   force =     0.00000000    0.00000000   -0.18864853
     atom    8 type  3   force =     0.00000000    0.00000000   -0.17970037
     atom    9 type  3   force =     0.00000000    0.00000000   -0.18361216
     atom   10 type  3   force =     0.00000000    0.00000000   -0.18361199
 

     Forces acting on atoms (cartesian axes, Ry/au):

     atom    1 type  1   force =    -0.00000610   -0.00412643    0.12261505
     atom    2 type  2   force =     0.00010010    0.00152806   -0.06331000
     atom    3 type  3   force =    -0.00085221    0.01330378    0.03623781
     atom    4 type  3   force =     0.00190697    0.01359714    0.03691532
     atom    5 type  3   force =    -0.00183945    0.01271930    0.00147016
     atom    6 type  3   force =     0.00075519    0.00796561    0.03101219
     atom    7 type  3   force =    -0.00159224   -0.01416460   -0.04727294
     atom    8 type  3   force =     0.00046301   -0.01790413   -0.02823531
     atom    9 type  3   force =     0.01621667   -0.00664567   -0.04495156
     atom   10 type  3   force =    -0.01515195   -0.00627306   -0.04448071
     The non-local contrib.  to forces
     atom    1 type  1   force =    -0.00007578   -0.00617067    0.51248529
     atom    2 type  2   force =     0.00024254    0.04107730   -3.25335897
     atom    3 type  3   force =    -0.02646498   -0.00137851   -0.10314695
     atom    4 type  3   force =     0.02659278   -0.00121338   -0.10357390
     atom    5 type  3   force =     0.00096689    0.00389883   -0.15509141
     atom    6 type  3   force =    -0.00082144   -0.01655561    0.48095179
     atom    7 type  3   force =     0.00059435    0.02312800    0.07603089
     atom    8 type  3   force =    -0.00091108   -0.01739330    0.10098391
     atom    9 type  3   force =     0.01721936   -0.00295751    0.06288337
     atom   10 type  3   force =    -0.01711008   -0.00262897    0.06173450
     The ionic contribution  to forces
     atom    1 type  1   force =     0.00636806    0.05296760   19.96835427
     atom    2 type  2   force =     0.00226724   -0.13041391   48.33963012
     atom    3 type  3   force =     0.50324609   -0.09020628   30.03736972
     atom    4 type  3   force =    -0.49292694   -0.08303178   30.06216876
     atom    5 type  3   force =    -0.07802400    0.12039865   29.68099553
     atom    6 type  3   force =     0.05586768    0.10046245   29.12582959
     atom    7 type  3   force =    -0.06942211   -0.08855591  -48.10896481
     atom    8 type  3   force =     0.05843526    0.13450123  -45.70999247
     atom    9 type  3   force =     0.08482129   -0.01166389  -46.71013044
     atom   10 type  3   force =    -0.07063256   -0.00445817  -46.68526027
     The local contribution  to forces
     atom    1 type  1   force =    -0.00630452   -0.05090889  -20.48209607
     atom    2 type  2   force =    -0.00241594    0.09088049  -45.41404591
     atom    3 type  3   force =    -0.48024310    0.10833467  -29.96527058
     atom    4 type  3   force =     0.47102878    0.10121532  -29.98911024
     atom    5 type  3   force =     0.07477620   -0.10785982  -29.59493352
     atom    6 type  3   force =    -0.05402754   -0.07211563  -29.74417460
     atom    7 type  3   force =     0.06675417    0.04333854   48.15894092
     atom    8 type  3   force =    -0.05671034   -0.13067300   45.74292542
     atom    9 type  3   force =    -0.09289061    0.00376130   46.76859209
     atom   10 type  3   force =     0.07984230   -0.00343157   46.74521193
     The core correction contribution to forces
     atom    1 type  1   force =     0.00000000    0.00000000    0.00000000
     atom    2 type  2   force =     0.00000000    0.00000000    0.00000000
     atom    3 type  3   force =     0.00260792   -0.00343992   -0.00771701
     atom    4 type  3   force =    -0.00279901   -0.00336667   -0.00757273
     atom    5 type  3   force =     0.00043356   -0.00369746   -0.00309997
     atom    6 type  3   force =    -0.00026845   -0.00381002    0.07006168
     atom    7 type  3   force =     0.00047502    0.00793917    0.01544139
     atom    8 type  3   force =    -0.00035744   -0.00431970    0.01762959
     atom    9 type  3   force =     0.00707006    0.00422760    0.01739661
     atom   10 type  3   force =    -0.00726783    0.00425875    0.01752830
     The Hubbard contrib.    to forces
     atom    1 type  1   force =     0.00000000    0.00000000    0.00000000
     atom    2 type  2   force =     0.00000000    0.00000000    0.00000000
     atom    3 type  3   force =     0.00000000    0.00000000    0.00000000
     atom    4 type  3   force =     0.00000000    0.00000000    0.00000000
     atom    5 type  3   force =     0.00000000    0.00000000    0.00000000
     atom    6 type  3   force =     0.00000000    0.00000000    0.00000000
     atom    7 type  3   force =     0.00000000    0.00000000    0.00000000
     atom    8 type  3   force =     0.00000000    0.00000000    0.00000000
     atom    9 type  3   force =     0.00000000    0.00000000    0.00000000
     atom   10 type  3   force =     0.00000000    0.00000000    0.00000000
     The SCF correction term to forces
     atom    1 type  1   force =    -0.00000030   -0.00000112   -0.00000894
     atom    2 type  2   force =    -0.00000018   -0.00000246   -0.00000701
     atom    3 type  3   force =    -0.00000458    0.00000716    0.00005631
     atom    4 type  3   force =     0.00000492    0.00000700    0.00005725
     atom    5 type  3   force =     0.00000146   -0.00000755    0.00005895
     atom    6 type  3   force =    -0.00000150   -0.00000224    0.00007151
     atom    7 type  3   force =    -0.00000011   -0.00000104    0.00006619
     atom    8 type  3   force =     0.00000019   -0.00000602    0.00005760
     atom    9 type  3   force =    -0.00000985    0.00000017    0.00005795
     atom   10 type  3   force =     0.00000978    0.00000025    0.00005580

     Total force =     0.177281     Total SCF correction =     0.000173

     Writing output data file PtCO_vacuum.save
 
     init_run     :      5.21s CPU      5.33s WALL (       1 calls)
     electrons    :     58.61s CPU     62.38s WALL (       1 calls)
     forces       :      3.16s CPU      3.25s WALL (       1 calls)

     Called by init_run:
     wfcinit      :      0.42s CPU      0.43s WALL (       1 calls)
     wfcinit:atom :      0.01s CPU      0.01s WALL (       1 calls)
     wfcinit:wfcr :      0.39s CPU      0.40s WALL (       1 calls)
     potinit      :      1.30s CPU      1.32s WALL (       1 calls)

     Called by electrons:
     c_bands      :     23.82s CPU     24.24s WALL (      22 calls)
     sum_band     :     17.52s CPU     19.02s WALL (      22 calls)
     v_of_rho     :      5.54s CPU      5.68s WALL (      23 calls)
     v_h          :      0.63s CPU      0.64s WALL (      61 calls)
     v_xc         :      5.55s CPU      5.67s WALL (      24 calls)
     newd         :      9.57s CPU     11.36s WALL (      23 calls)
     mix_rho      :      0.82s CPU      0.82s WALL (      22 calls)

     Called by c_bands:
     init_us_2    :      0.32s CPU      0.34s WALL (      45 calls)
     cegterg      :     22.23s CPU     22.65s WALL (      22 calls)

     Called by sum_band:
     sum_band:bec :      0.00s CPU      0.00s WALL (      22 calls)
     addusdens    :     12.93s CPU     14.40s WALL (      22 calls)

     Called by *egterg:
     h_psi        :     15.05s CPU     15.05s WALL (      75 calls)
     s_psi        :      1.35s CPU      1.36s WALL (      75 calls)
     g_psi        :      0.18s CPU      0.17s WALL (      52 calls)
     cdiaghg      :      0.63s CPU      0.62s WALL (      74 calls)
     cegterg:over :      1.84s CPU      1.84s WALL (      52 calls)
     cegterg:upda :      1.45s CPU      1.46s WALL (      52 calls)
     cegterg:last :      0.86s CPU      0.86s WALL (      22 calls)

     Called by h_psi:
     h_psi:pot    :     14.86s CPU     14.86s WALL (      75 calls)
     h_psi:calbec :      1.23s CPU      1.23s WALL (      75 calls)
     vloc_psi     :     12.26s CPU     12.27s WALL (      75 calls)
     add_vuspsi   :      1.38s CPU      1.35s WALL (      75 calls)

     General routines
     calbec       :      1.87s CPU      1.88s WALL (     101 calls)
     fft          :      3.15s CPU      3.15s WALL (     452 calls)
     ffts         :      0.09s CPU      0.09s WALL (      45 calls)
     fftw         :     11.71s CPU     11.83s WALL (    9410 calls)
     interpolate  :      0.49s CPU      0.49s WALL (      45 calls)
     davcio       :      0.00s CPU      0.01s WALL (       1 calls)
 
     Parallel routines
     fft_scatter  :      1.84s CPU      1.80s WALL (    9907 calls)
 
     Environ routines
     calc_eelect  :      0.02s CPU      0.02s WALL (      44 calls)
     calc_velect  :      1.44s CPU      1.44s WALL (      38 calls)
     calc_felect  :      0.09s CPU      0.09s WALL (       1 calls)
 
     PWSCF        :  1m 7.12s CPU     1m11.11s WALL

 
   This run was terminated on:  13:12:31  30Jan2018            

=------------------------------------------------------------------------------=
   JOB DONE.
=------------------------------------------------------------------------------=
