
     Program PWSCF v.6.7MaX starts on 25Sep2021 at 15:37:18 

     This program is part of the open-source Quantum ESPRESSO suite
     for quantum simulation of materials; please cite
         "P. Giannozzi et al., J. Phys.:Condens. Matter 21 395502 (2009);
         "P. Giannozzi et al., J. Phys.:Condens. Matter 29 465901 (2017);
          URL http://www.quantum-espresso.org", 
     in publications or presentations arising from this work. More details at
     http://www.quantum-espresso.org/quote

     Parallel version (MPI), running on     1 processors

     MPI processes distributed on     1 nodes
     Waiting for input...
     Reading input from standard input

     Current dimensions of program PWSCF are:
     Max number of different atomic species (ntypx) = 10
     Max number of k-points (npk) =  40000
     Max angular momentum in pseudopotentials (lmaxx) =  3

     Reading input from environ.in

     ================================================================================

     Reading ENVIRON namelist

     Reading BOUNDARY namelist

     Checking boundary derivatives
     derivatives               = chain          ! SCCS default

     Reading ELECTROSTATIC namelist

     Setting up electrostatic problem
     problem                   = generalized    
     solver                    = cg             

     Checking PBC correction

     ================================================================================
 
     file C.pbe-rrkjus.UPF: wavefunction(s)  2S 2P renormalized
     file O.pbe-rrkjus.UPF: wavefunction(s)  2S renormalized

     Subspace diagonalization in iterative solution of the eigenvalue problem:
     a serial algorithm will be used

 
     G-vector sticks info
     --------------------
     sticks:   dense  smooth     PW     G-vecs:    dense   smooth      PW
     Sum        2205    1099    269               330909   116965   14571
 


     bravais-lattice index     =            8
     lattice parameter (alat)  =      10.6881  a.u.
     unit-cell volume          =    4181.1215 (a.u.)^3
     number of atoms/cell      =           10
     number of atomic types    =            3
     number of electrons       =        89.00
     number of Kohn-Sham states=           80
     kinetic-energy cutoff     =      35.0000  Ry
     charge density cutoff     =     280.0000  Ry
     scf convergence threshold =      5.0E-09
     mixing beta               =       0.2000
     number of iterations used =            8  plain     mixing
     Exchange-correlation= SLA  PW   PBE  PBE
                           (   1   4   3   4   0   0   0)
 

     Environ Module
     ==============

     Please cite
         O. Andreussi, I. Dabo and N. Marzari, J. Chem. Phys. 136, 064102 (2012)         
     in publications or presentations arising from this work.

     compensation onset threshold      =               0.1000E+01
     static permittivity               =                    80.00
     epsilon calculation mode          =                     full

     Electrostatic Setup
     -------------------
     electrostatic problem to solve    = generalized             
     numerical solver adopted          = cg                      
     type of auxiliary density adopted = none                    
     type of core tool for poisson     = fft                     
     type of core tool for correction  = 1d-analytic             



     celldm(1)=  10.688100  celldm(2)=   0.866025  celldm(3)=   3.954220
     celldm(4)=   0.000000  celldm(5)=   0.000000  celldm(6)=   0.000000

     crystal axes: (cart. coord. in units of alat)
               a(1) = (   1.000000   0.000000   0.000000 )  
               a(2) = (   0.000000   0.866025   0.000000 )  
               a(3) = (   0.000000   0.000000   3.954220 )  

     reciprocal axes: (cart. coord. in units 2 pi/alat)
               b(1) = (  1.000000  0.000000  0.000000 )  
               b(2) = (  0.000000  1.154701  0.000000 )  
               b(3) = (  0.000000  0.000000  0.252894 )  


     PseudoPot. # 1 for C  read from file:
     /home/simplogic86/Work/QE1/pseudo/C.pbe-rrkjus.UPF
     MD5 check sum: c9ac5a99bc85b198593446162950cd17
     Pseudo is Ultrasoft, Zval =  4.0
     Generated by new atomic code, or converted to UPF format
     Using radial grid of  627 points,  4 beta functions with: 
                l(1) =   0
                l(2) =   0
                l(3) =   1
                l(4) =   1
     Q(r) pseudized with 0 coefficients 


     PseudoPot. # 2 for O  read from file:
     /home/simplogic86/Work/QE1/pseudo/O.pbe-rrkjus.UPF
     MD5 check sum: fadcf19ee70a498d3030e2e79cf929a4
     Pseudo is Ultrasoft, Zval =  6.0
     Generated by new atomic code, or converted to UPF format
     Using radial grid of 1269 points,  4 beta functions with: 
                l(1) =   0
                l(2) =   0
                l(3) =   1
                l(4) =   1
     Q(r) pseudized with 0 coefficients 


     PseudoPot. # 3 for Pt read from file:
     /home/simplogic86/Work/QE1/pseudo/Pt.pbe-nd-rrkjus.UPF
     MD5 check sum: b34016df742983190e94d0e746921a01
     Pseudo is Ultrasoft + core correction, Zval = 10.0
     Generated by new atomic code, or converted to UPF format
     Using radial grid of 1547 points,  3 beta functions with: 
                l(1) =   1
                l(2) =   2
                l(3) =   2
     Q(r) pseudized with 0 coefficients 


     atomic species   valence    mass     pseudopotential
        C              4.00     1.00000     C ( 1.00)
        O              6.00     1.00000     O ( 1.00)
        Pt            10.00     1.00000     Pt( 1.00)

     No symmetry found


                                    s                        frac. trans.

      isym =  1     identity                                     

 cryst.   s( 1) = (     1          0          0      )
                  (     0          1          0      )
                  (     0          0          1      )

 cart.    s( 1) = (  1.0000000  0.0000000  0.0000000 )
                  (  0.0000000  1.0000000  0.0000000 )
                  (  0.0000000  0.0000000  1.0000000 )


     point group C_1 (1)    
     there are  1 classes
     the character table:

       E    
A      1.00

     the symmetry operations in each class and the name of the first element:

     E        1
          identity                                               

   Cartesian axes

     site n.     atom                  positions (alat units)
         1           C   tau(   1) = (   0.4991611   0.4347567   1.2070461  )
         2           O   tau(   2) = (   0.4991542   0.4322212   1.4109013  )
         3           Pt  tau(   3) = (   0.7542339   0.0091745   0.8413229  )
         4           Pt  tau(   4) = (   0.2441023   0.0091745   0.8413226  )
         5           Pt  tau(   5) = (   0.0000034   0.4416918   0.8391348  )
         6           Pt  tau(   6) = (   0.4991682   0.4417635   0.8776299  )
         7           Pt  tau(   7) = (   0.0000038   0.7300598   0.4308181  )
         8           Pt  tau(   8) = (   0.4991683   0.7202168   0.4447460  )
         9           Pt  tau(   9) = (   0.2524172   0.2949237   0.4386572  )
        10           Pt  tau(  10) = (   0.7459196   0.2949237   0.4386575  )

   Crystallographic axes

     site n.     atom                  positions (cryst. coord.)
         1           C   tau(   1) = (  0.4991611  0.5020141  0.3052552  )
         2           O   tau(   2) = (  0.4991542  0.4990863  0.3568090  )
         3           Pt  tau(   3) = (  0.7542339  0.0105938  0.2127658  )
         4           Pt  tau(   4) = (  0.2441023  0.0105938  0.2127658  )
         5           Pt  tau(   5) = (  0.0000034  0.5100220  0.2122125  )
         6           Pt  tau(   6) = (  0.4991682  0.5101048  0.2219477  )
         7           Pt  tau(   7) = (  0.0000038  0.8430008  0.1089515  )
         8           Pt  tau(   8) = (  0.4991683  0.8316351  0.1124738  )
         9           Pt  tau(   9) = (  0.2524172  0.3405487  0.1109339  )
        10           Pt  tau(  10) = (  0.7459196  0.3405488  0.1109340  )

     number of k points=     1  Marzari-Vanderbilt smearing, width (Ry)=  0.0300
                       cart. coord. in units 2pi/alat
        k(    1) = (   0.0000000   0.0000000   0.0000000), wk =   2.0000000

                       cryst. coord.
        k(    1) = (   0.0000000   0.0000000   0.0000000), wk =   2.0000000

     Dense  grid:   330909 G-vectors     FFT dimensions: (  60,  50, 225)

     Smooth grid:   116965 G-vectors     FFT dimensions: (  45,  36, 160)

     Dynamical RAM for                 wfc:      17.85 MB

     Dynamical RAM for     wfc (w. buffer):      17.85 MB

     Dynamical RAM for           str. fact:      15.15 MB

     Dynamical RAM for           local pot:       0.00 MB

     Dynamical RAM for          nlocal pot:      26.77 MB

     Dynamical RAM for                qrad:       1.92 MB

     Dynamical RAM for          rho,v,vnew:      30.60 MB

     Dynamical RAM for               rhoin:      10.20 MB

     Dynamical RAM for            rho*nmix:      80.79 MB

     Dynamical RAM for           G-vectors:      19.83 MB

     Dynamical RAM for          h,s,v(r/c):       1.17 MB

     Dynamical RAM for          <psi|beta>:       0.15 MB

     Dynamical RAM for                 psi:      35.69 MB

     Dynamical RAM for                hpsi:      35.69 MB

     Dynamical RAM for                spsi:      35.69 MB

     Dynamical RAM for      wfcinit/wfcrot:      35.84 MB

     Dynamical RAM for           addusdens:     575.62 MB

     Dynamical RAM for          addusforce:     648.85 MB

     Estimated static dynamical RAM per process >     249.04 MB

     Estimated max dynamical RAM per process >     897.89 MB

     Check: negative core charge=   -0.000038

     Initial potential from superposition of free atoms

     starting charge   89.99875, renormalised to   89.00000

     negative rho (up, down):  7.106E-05 0.000E+00
     Starting wfcs are   56 randomized atomic wfcs +   24 random wfcs

     total cpu time spent up to now is        6.6 secs

     Self-consistent Calculation

     iteration #  1     ecut=    35.00 Ry     beta= 0.20
     Davidson diagonalization with overlap
     ethr =  1.00E-02,  avg # of iterations =  8.0

     negative rho (up, down):  7.304E-05 0.000E+00

     total cpu time spent up to now is       11.7 secs

     total energy              =    -735.17449213 Ry
     estimated scf accuracy    <       2.30979550 Ry
     electrostatic embedding   =       0.03381190 Ry
     correction to one-el term =       0.00000000 Ry

     iteration #  2     ecut=    35.00 Ry     beta= 0.20
     Davidson diagonalization with overlap
     ethr =  2.60E-03,  avg # of iterations =  2.0

     negative rho (up, down):  1.329E-04 0.000E+00

     total cpu time spent up to now is       16.5 secs

     total energy              =    -734.89092139 Ry
     estimated scf accuracy    <      17.11811999 Ry
     electrostatic embedding   =       0.03381190 Ry
     correction to one-el term =       0.00000000 Ry

     iteration #  3     ecut=    35.00 Ry     beta= 0.20
     Davidson diagonalization with overlap
     ethr =  2.60E-03,  avg # of iterations =  2.0

     negative rho (up, down):  1.045E-04 0.000E+00

     add environment contribution to local potential

     total cpu time spent up to now is       25.5 secs

     total energy              =    -735.53306258 Ry
     estimated scf accuracy    <       0.51751221 Ry
     electrostatic embedding   =       0.03381190 Ry
     correction to one-el term =       0.00000000 Ry

     iteration #  4     ecut=    35.00 Ry     beta= 0.20
     Davidson diagonalization with overlap
     ethr =  5.81E-04,  avg # of iterations = 10.0

     negative rho (up, down):  1.052E-04 0.000E+00

     add environment contribution to local potential

     total cpu time spent up to now is       33.7 secs

     total energy              =    -735.32543186 Ry
     estimated scf accuracy    <       0.52176292 Ry
     electrostatic embedding   =       0.25150458 Ry
     correction to one-el term =      13.71296629 Ry

     iteration #  5     ecut=    35.00 Ry     beta= 0.20
     Davidson diagonalization with overlap
     ethr =  5.81E-04,  avg # of iterations =  2.0

     negative rho (up, down):  1.136E-04 0.000E+00

     add environment contribution to local potential

     total cpu time spent up to now is       42.9 secs

     total energy              =    -735.33728489 Ry
     estimated scf accuracy    <       0.16530272 Ry
     electrostatic embedding   =       0.23603987 Ry
     correction to one-el term =      11.93121973 Ry

     iteration #  6     ecut=    35.00 Ry     beta= 0.20
     Davidson diagonalization with overlap
     ethr =  1.86E-04,  avg # of iterations =  6.0

     negative rho (up, down):  1.477E-04 0.000E+00

     add environment contribution to local potential

     total cpu time spent up to now is       51.6 secs

     total energy              =    -735.32762358 Ry
     estimated scf accuracy    <       0.06583426 Ry
     electrostatic embedding   =       0.22972528 Ry
     correction to one-el term =      11.11936073 Ry

     iteration #  7     ecut=    35.00 Ry     beta= 0.20
     Davidson diagonalization with overlap
     ethr =  7.40E-05,  avg # of iterations =  7.0

     negative rho (up, down):  1.462E-04 0.000E+00

     add environment contribution to local potential

     total cpu time spent up to now is       59.9 secs

     total energy              =    -735.32887458 Ry
     estimated scf accuracy    <       0.67166408 Ry
     electrostatic embedding   =       0.21746272 Ry
     correction to one-el term =       9.65867812 Ry

     iteration #  8     ecut=    35.00 Ry     beta= 0.20
     Davidson diagonalization with overlap
     ethr =  7.40E-05,  avg # of iterations =  2.0

     negative rho (up, down):  1.456E-04 0.000E+00

     add environment contribution to local potential

     total cpu time spent up to now is       68.6 secs

     total energy              =    -735.33557585 Ry
     estimated scf accuracy    <       0.01277292 Ry
     electrostatic embedding   =       0.21412346 Ry
     correction to one-el term =       9.25274660 Ry

     iteration #  9     ecut=    35.00 Ry     beta= 0.20
     Davidson diagonalization with overlap
     ethr =  1.44E-05,  avg # of iterations =  9.0

     negative rho (up, down):  1.505E-04 0.000E+00

     add environment contribution to local potential

     total cpu time spent up to now is       77.2 secs

     total energy              =    -735.33591141 Ry
     estimated scf accuracy    <       0.00509293 Ry
     electrostatic embedding   =       0.21232302 Ry
     correction to one-el term =       9.03600214 Ry

     iteration # 10     ecut=    35.00 Ry     beta= 0.20
     Davidson diagonalization with overlap
     ethr =  5.72E-06,  avg # of iterations =  2.0

     negative rho (up, down):  1.493E-04 0.000E+00

     add environment contribution to local potential

     total cpu time spent up to now is       86.1 secs

     total energy              =    -735.33534745 Ry
     estimated scf accuracy    <       0.00894594 Ry
     electrostatic embedding   =       0.20985496 Ry
     correction to one-el term =       8.74679908 Ry

     iteration # 11     ecut=    35.00 Ry     beta= 0.20
     Davidson diagonalization with overlap
     ethr =  5.72E-06,  avg # of iterations =  2.0

     negative rho (up, down):  1.471E-04 0.000E+00

     add environment contribution to local potential

     total cpu time spent up to now is       93.7 secs

     total energy              =    -735.33604826 Ry
     estimated scf accuracy    <       0.01325795 Ry
     electrostatic embedding   =       0.20891412 Ry
     correction to one-el term =       8.65381627 Ry

     iteration # 12     ecut=    35.00 Ry     beta= 0.20
     Davidson diagonalization with overlap
     ethr =  5.72E-06,  avg # of iterations =  1.0

     negative rho (up, down):  1.469E-04 0.000E+00

     add environment contribution to local potential

     total cpu time spent up to now is      103.0 secs

     total energy              =    -735.33609259 Ry
     estimated scf accuracy    <       0.00117905 Ry
     electrostatic embedding   =       0.20817342 Ry
     correction to one-el term =       8.58196883 Ry

     iteration # 13     ecut=    35.00 Ry     beta= 0.20
     Davidson diagonalization with overlap
     ethr =  1.32E-06,  avg # of iterations =  2.0

     negative rho (up, down):  1.455E-04 0.000E+00

     add environment contribution to local potential

     total cpu time spent up to now is      111.5 secs

     total energy              =    -735.33614015 Ry
     estimated scf accuracy    <       0.00007009 Ry
     electrostatic embedding   =       0.20691391 Ry
     correction to one-el term =       8.45676619 Ry

     iteration # 14     ecut=    35.00 Ry     beta= 0.20
     Davidson diagonalization with overlap
     ethr =  7.88E-08,  avg # of iterations =  2.0

     negative rho (up, down):  1.444E-04 0.000E+00

     add environment contribution to local potential

     total cpu time spent up to now is      119.3 secs

     total energy              =    -735.33615228 Ry
     estimated scf accuracy    <       0.00001520 Ry
     electrostatic embedding   =       0.20646538 Ry
     correction to one-el term =       8.41755058 Ry

     iteration # 15     ecut=    35.00 Ry     beta= 0.20
     Davidson diagonalization with overlap
     ethr =  1.71E-08,  avg # of iterations =  2.0

     negative rho (up, down):  1.437E-04 0.000E+00

     add environment contribution to local potential

     total cpu time spent up to now is      127.8 secs

     total energy              =    -735.33616168 Ry
     estimated scf accuracy    <       0.00000379 Ry
     electrostatic embedding   =       0.20609644 Ry
     correction to one-el term =       8.38617978 Ry

     iteration # 16     ecut=    35.00 Ry     beta= 0.20
     Davidson diagonalization with overlap
     ethr =  4.26E-09,  avg # of iterations =  2.0

     negative rho (up, down):  1.433E-04 0.000E+00

     add environment contribution to local potential

     total cpu time spent up to now is      136.0 secs

     total energy              =    -735.33616377 Ry
     estimated scf accuracy    <       0.00000186 Ry
     electrostatic embedding   =       0.20596965 Ry
     correction to one-el term =       8.37569501 Ry

     iteration # 17     ecut=    35.00 Ry     beta= 0.20
     Davidson diagonalization with overlap
     ethr =  2.09E-09,  avg # of iterations =  3.0

     negative rho (up, down):  1.431E-04 0.000E+00

     add environment contribution to local potential

     total cpu time spent up to now is      144.6 secs

     total energy              =    -735.33616628 Ry
     estimated scf accuracy    <       0.00000252 Ry
     electrostatic embedding   =       0.20573705 Ry
     correction to one-el term =       8.35600626 Ry

     iteration # 18     ecut=    35.00 Ry     beta= 0.20
     Davidson diagonalization with overlap
     ethr =  2.09E-09,  avg # of iterations =  2.0

     negative rho (up, down):  1.430E-04 0.000E+00

     add environment contribution to local potential

     total cpu time spent up to now is      152.7 secs

     total energy              =    -735.33616726 Ry
     estimated scf accuracy    <       0.00000036 Ry
     electrostatic embedding   =       0.20562526 Ry
     correction to one-el term =       8.34679204 Ry

     iteration # 19     ecut=    35.00 Ry     beta= 0.20
     Davidson diagonalization with overlap
     ethr =  4.04E-10,  avg # of iterations =  2.0

     negative rho (up, down):  1.430E-04 0.000E+00

     add environment contribution to local potential

     total cpu time spent up to now is      161.5 secs

     total energy              =    -735.33616757 Ry
     estimated scf accuracy    <       0.00000041 Ry
     electrostatic embedding   =       0.20556888 Ry
     correction to one-el term =       8.34208004 Ry

     iteration # 20     ecut=    35.00 Ry     beta= 0.20
     Davidson diagonalization with overlap
     ethr =  4.04E-10,  avg # of iterations =  3.0

     negative rho (up, down):  1.431E-04 0.000E+00

     add environment contribution to local potential

     total cpu time spent up to now is      170.6 secs

     total energy              =    -735.33616781 Ry
     estimated scf accuracy    <       0.00000016 Ry
     electrostatic embedding   =       0.20548967 Ry
     correction to one-el term =       8.33525332 Ry

     iteration # 21     ecut=    35.00 Ry     beta= 0.20
     Davidson diagonalization with overlap
     ethr =  1.84E-10,  avg # of iterations =  2.0

     negative rho (up, down):  1.432E-04 0.000E+00

     add environment contribution to local potential

     total cpu time spent up to now is      179.2 secs

     total energy              =    -735.33616786 Ry
     estimated scf accuracy    <       0.00000005 Ry
     electrostatic embedding   =       0.20547575 Ry
     correction to one-el term =       8.33408194 Ry

     iteration # 22     ecut=    35.00 Ry     beta= 0.20
     Davidson diagonalization with overlap
     ethr =  5.11E-11,  avg # of iterations =  2.0

     negative rho (up, down):  1.433E-04 0.000E+00

     add environment contribution to local potential

     total cpu time spent up to now is      186.9 secs

     total energy              =    -735.33616790 Ry
     estimated scf accuracy    <       0.00000002 Ry
     electrostatic embedding   =       0.20546265 Ry
     correction to one-el term =       8.33306393 Ry

     iteration # 23     ecut=    35.00 Ry     beta= 0.20
     Davidson diagonalization with overlap
     ethr =  2.52E-11,  avg # of iterations =  3.0

     negative rho (up, down):  1.434E-04 0.000E+00

     add environment contribution to local potential

     total cpu time spent up to now is      195.9 secs

     total energy              =    -735.33616793 Ry
     estimated scf accuracy    <       0.00000001 Ry
     electrostatic embedding   =       0.20545745 Ry
     correction to one-el term =       8.33278543 Ry

     iteration # 24     ecut=    35.00 Ry     beta= 0.20
     Davidson diagonalization with overlap
     ethr =  1.30E-11,  avg # of iterations =  3.0

     negative rho (up, down):  1.438E-04 0.000E+00

     the potential shift due to the Gaussian-smeared nuclei is    -0.4600 ev

     total cpu time spent up to now is      199.6 secs

     End of self-consistent calculation

          k = 0.0000 0.0000 0.0000 ( 14571 PWs)   bands (ev):

   -29.5135 -16.0501 -14.4621 -13.1893 -13.0062 -12.3966 -12.3742 -12.3008
   -12.1205 -11.2568 -11.1351 -11.0094 -10.7942 -10.7695 -10.6918 -10.5576
    -9.8561  -9.8302  -9.7698  -9.5777  -9.5566  -9.5061  -9.4693  -9.4220
    -9.4037  -9.2205  -9.1919  -9.0642  -8.9761  -8.7415  -8.6504  -7.8739
    -7.7698  -7.4837  -7.2640  -7.2025  -7.1335  -6.9884  -6.8024  -6.7169
    -6.5485  -6.5345  -6.3218  -6.3213  -6.2840  -6.1241  -5.9601  -4.8075
    -4.5890  -4.5085  -3.8294  -3.1918  -3.0318  -2.0079  -1.7315  -1.6927
    -1.0135  -0.7013  -0.3901   0.0005   0.0914   0.6805   1.1134   1.3588
     1.8982   2.1748   2.3838   2.5965   2.6959   2.9484   3.5613   3.6997
     3.8471   3.9227   4.3529   4.6114   4.6777   4.7126   4.9978   5.0953

     occupation numbers 
     1.0000   1.0000   1.0000   1.0000   1.0000   1.0000   1.0000   1.0000
     1.0000   1.0000   1.0000   1.0000   1.0000   1.0000   1.0000   1.0000
     1.0000   1.0000   1.0000   1.0000   1.0000   1.0000   1.0000   1.0000
     1.0000   1.0000   1.0000   1.0000   1.0000   1.0000   1.0000   1.0000
     1.0000   1.0006   1.0063   1.0106   1.0181   1.0440   1.0812   1.0801
     0.9884   0.9740   0.6474   0.6466   0.5777   0.3051   0.1198   0.0000
     0.0000   0.0000   0.0000   0.0000   0.0000   0.0000   0.0000   0.0000
     0.0000   0.0000   0.0000   0.0000   0.0000   0.0000   0.0000   0.0000
     0.0000   0.0000   0.0000   0.0000   0.0000   0.0000   0.0000   0.0000
     0.0000   0.0000   0.0000   0.0000   0.0000   0.0000   0.0000   0.0000

     the Fermi energy is    -6.1847 ev

!    total energy              =    -735.33616796 Ry
     estimated scf accuracy    <          2.8E-09 Ry
     smearing contrib. (-TS)   =      -0.00069566 Ry
     internal energy E=F+TS    =    -735.33547230 Ry

     The total energy is F=E-TS. E is the sum of the following terms:
     one-electron contribution =   -3941.39103404 Ry
     hartree contribution      =    2003.01547996 Ry
     xc contribution           =    -378.70330384 Ry
     ewald contribution        =    1573.20467954 Ry
     electrostatic embedding   =       0.20546082 Ry
     correction to one-el term =       8.33324528 Ry

     WARNING: you are using the parabolic pbc correction;
              the potential shift above must be added to 
              band and Fermi energies.

     convergence has been achieved in  24 iterations

     negative rho (up, down):  1.438E-04 0.000E+00
     The global environment contribution to forces
     atom    1 type  1   force =     0.00006747    0.00580506   -0.05856681
     atom    2 type  2   force =     0.00001820    0.00423181   -0.32503405
     atom    3 type  3   force =    -0.00088879   -0.00375331    0.12465681
     atom    4 type  3   force =     0.00090276   -0.00376784    0.12473295
     atom    5 type  3   force =    -0.00015411    0.00208656    0.10115347
     atom    6 type  3   force =     0.00008208    0.00499538    0.08403459
     atom    7 type  3   force =    -0.00048118    0.00755702   -0.14742883
     atom    8 type  3   force =     0.00040008    0.00886762   -0.13661434
     atom    9 type  3   force =    -0.00912404   -0.00722449   -0.15822826
     atom   10 type  3   force =     0.00915636   -0.00726655   -0.15885693
 

     Forces acting on atoms (cartesian axes, Ry/au):

     atom    1 type  1   force =    -0.00004502   -0.00444635    0.08318119
     atom    2 type  2   force =     0.00001850    0.00141585   -0.05997346
     atom    3 type  3   force =     0.00039241    0.01400289    0.03298441
     atom    4 type  3   force =     0.00065397    0.01429493    0.03370103
     atom    5 type  3   force =    -0.00180141    0.01274794   -0.00362759
     atom    6 type  3   force =     0.00079681    0.00781739    0.04274655
     atom    7 type  3   force =    -0.00151887   -0.01435868   -0.03742494
     atom    8 type  3   force =     0.00045227   -0.02022034   -0.02042203
     atom    9 type  3   force =     0.01747222   -0.00580581   -0.03581618
     atom   10 type  3   force =    -0.01642086   -0.00544782   -0.03534898
     The non-local contrib.  to forces
     atom    1 type  1   force =    -0.00008246   -0.00751203    0.58226753
     atom    2 type  2   force =     0.00019189    0.03854026   -2.92605356
     atom    3 type  3   force =    -0.02660332   -0.00123591   -0.10384025
     atom    4 type  3   force =     0.02670768   -0.00106799   -0.10429855
     atom    5 type  3   force =     0.00099976    0.00435683   -0.15556243
     atom    6 type  3   force =    -0.00081062   -0.01672652    0.50091418
     atom    7 type  3   force =     0.00061444    0.02494649    0.06457821
     atom    8 type  3   force =    -0.00091595   -0.01816577    0.09208315
     atom    9 type  3   force =     0.01907144   -0.00383480    0.05438149
     atom   10 type  3   force =    -0.01897692   -0.00350847    0.05317971
     The ionic contribution  to forces
     atom    1 type  1   force =     0.00636806    0.05296760   19.96835427
     atom    2 type  2   force =     0.00226724   -0.13041391   48.33963012
     atom    3 type  3   force =     0.50324609   -0.09020628   30.03736972
     atom    4 type  3   force =    -0.49292694   -0.08303178   30.06216876
     atom    5 type  3   force =    -0.07802400    0.12039865   29.68099553
     atom    6 type  3   force =     0.05586768    0.10046245   29.12582959
     atom    7 type  3   force =    -0.06942211   -0.08855591  -48.10896481
     atom    8 type  3   force =     0.05843526    0.13450123  -45.70999247
     atom    9 type  3   force =     0.08482129   -0.01166389  -46.71013044
     atom   10 type  3   force =    -0.07063256   -0.00445817  -46.68526027
     The local contribution  to forces
     atom    1 type  1   force =    -0.00641327   -0.05569975  -20.40832552
     atom    2 type  2   force =    -0.00247404    0.08906295  -45.14799736
     atom    3 type  3   force =    -0.47806791    0.11273876  -30.01419951
     atom    4 type  3   force =     0.46882260    0.10561209  -30.03807844
     atom    5 type  3   force =     0.07491884   -0.11038753  -29.62552728
     atom    6 type  3   force =    -0.05409941   -0.07719980  -29.73625412
     atom    7 type  3   force =     0.06725946    0.03414741   48.14126923
     atom    8 type  3   force =    -0.05711986   -0.14106230   45.71843713
     atom    9 type  3   force =    -0.08462755    0.01268048   46.76169331
     atom   10 type  3   force =     0.07152763    0.00552215   46.73894751
     The core correction contribution to forces
     atom    1 type  1   force =     0.00000000    0.00000000    0.00000000
     atom    2 type  2   force =     0.00000000    0.00000000    0.00000000
     atom    3 type  3   force =     0.00269950   -0.00353825   -0.01041037
     atom    4 type  3   force =    -0.00287556   -0.00344717   -0.01023220
     atom    5 type  3   force =     0.00044305   -0.00370191   -0.00408555
     atom    6 type  3   force =    -0.00025821   -0.00369747    0.06879501
     atom    7 type  3   force =     0.00049607    0.00755298    0.01371412
     atom    8 type  3   force =    -0.00036278   -0.00437369    0.01624310
     atom    9 type  3   force =     0.00734467    0.00425100    0.01707203
     atom   10 type  3   force =    -0.00753948    0.00427785    0.01724761
     The Hubbard contrib.    to forces
     atom    1 type  1   force =     0.00000000    0.00000000    0.00000000
     atom    2 type  2   force =     0.00000000    0.00000000    0.00000000
     atom    3 type  3   force =     0.00000000    0.00000000    0.00000000
     atom    4 type  3   force =     0.00000000    0.00000000    0.00000000
     atom    5 type  3   force =     0.00000000    0.00000000    0.00000000
     atom    6 type  3   force =     0.00000000    0.00000000    0.00000000
     atom    7 type  3   force =     0.00000000    0.00000000    0.00000000
     atom    8 type  3   force =     0.00000000    0.00000000    0.00000000
     atom    9 type  3   force =     0.00000000    0.00000000    0.00000000
     atom   10 type  3   force =     0.00000000    0.00000000    0.00000000
     The SCF correction term to forces
     atom    1 type  1   force =    -0.00000001   -0.00000151    0.00001613
     atom    2 type  2   force =     0.00000002    0.00000046    0.00004581
     atom    3 type  3   force =    -0.00000834    0.00000359   -0.00002758
     atom    4 type  3   force =     0.00000824    0.00000335   -0.00002710
     atom    5 type  3   force =    -0.00000013    0.00000105   -0.00003692
     atom    6 type  3   force =     0.00000010   -0.00001093   -0.00000828
     atom    7 type  3   force =    -0.00000073   -0.00000095   -0.00002844
     atom    8 type  3   force =     0.00000033    0.00001830   -0.00001419
     atom    9 type  3   force =    -0.00002878   -0.00000839   -0.00003989
     atom   10 type  3   force =     0.00002893   -0.00000891   -0.00004221

     Total force =     0.144348     Total SCF correction =     0.000110

     Writing output data file /home/simplogic86/Work/QE1/tempdir/PtCO_water.save/
 
     init_run     :      6.39s CPU      6.56s WALL (       1 calls)
     electrons    :    184.36s CPU    192.98s WALL (       1 calls)
     forces       :      4.35s CPU      4.73s WALL (       1 calls)

     Called by init_run:
     wfcinit      :      0.60s CPU      0.62s WALL (       1 calls)
     wfcinit:atom :      0.01s CPU      0.01s WALL (       1 calls)
     wfcinit:wfcr :      0.58s CPU      0.60s WALL (       1 calls)
     potinit      :      1.02s CPU      1.03s WALL (       1 calls)
     hinit0       :      3.92s CPU      3.93s WALL (       1 calls)

     Called by electrons:
     c_bands      :     38.73s CPU     39.86s WALL (      24 calls)
     sum_band     :     23.20s CPU     26.04s WALL (      24 calls)
     v_of_rho     :      6.90s CPU      7.87s WALL (      25 calls)
     v_h          :      0.28s CPU      0.28s WALL (      25 calls)
     v_xc         :      6.89s CPU      7.99s WALL (      26 calls)
     newd         :     13.43s CPU     16.87s WALL (      25 calls)
     mix_rho      :      0.95s CPU      0.96s WALL (      24 calls)

     Called by c_bands:
     init_us_2    :      0.30s CPU      0.30s WALL (      49 calls)
     cegterg      :     37.05s CPU     38.17s WALL (      24 calls)

     Called by sum_band:
     sum_band:wei :      0.00s CPU      0.00s WALL (      24 calls)
     sum_band:loo :      6.15s CPU      6.30s WALL (      24 calls)
     sum_band:buf :      0.00s CPU      0.00s WALL (      24 calls)
     sum_band:ini :      0.15s CPU      0.15s WALL (      24 calls)
     sum_band:cal :      0.71s CPU      0.71s WALL (      24 calls)
     sum_band:bec :      0.00s CPU      0.00s WALL (      24 calls)
     addusdens    :     16.69s CPU     19.37s WALL (      24 calls)
     addusd:skk   :      0.26s CPU      0.32s WALL (      72 calls)
     addusd:dgemm :      2.12s CPU      4.45s WALL (      72 calls)
     addusd:qvan2 :     13.22s CPU     13.27s WALL (      72 calls)

     Called by *egterg:
     cdiaghg      :      0.58s CPU      0.58s WALL (     105 calls)
     cegterg:over :      2.52s CPU      2.52s WALL (      81 calls)
     cegterg:upda :      1.51s CPU      1.58s WALL (      81 calls)
     cegterg:last :      3.69s CPU      3.69s WALL (      50 calls)
     h_psi        :     26.10s CPU     26.93s WALL (     106 calls)
     s_psi        :      1.69s CPU      1.74s WALL (     106 calls)
     g_psi        :      0.10s CPU      0.10s WALL (      81 calls)

     Called by h_psi:
     h_psi:calbec :      1.71s CPU      1.71s WALL (     106 calls)
     vloc_psi     :     22.53s CPU     23.27s WALL (     106 calls)
     add_vuspsi   :      1.73s CPU      1.73s WALL (     106 calls)

     General routines
     calbec       :      2.54s CPU      2.63s WALL (     134 calls)
     fft          :      2.26s CPU      2.41s WALL (     334 calls)
     ffts         :      0.12s CPU      0.12s WALL (      49 calls)
     fftw         :     24.39s CPU     25.11s WALL (   10786 calls)
     interpolate  :      0.28s CPU      0.28s WALL (      25 calls)
 
     Parallel routines
 
     Environ routines
 
     PWSCF        :   3m15.17s CPU   3m24.39s WALL

 
   This run was terminated on:  15:40:43  25Sep2021            

=------------------------------------------------------------------------------=
   JOB DONE.
=------------------------------------------------------------------------------=
