
     Program PWSCF v.6.7MaX starts on 25Sep2021 at 15:35:28 

     This program is part of the open-source Quantum ESPRESSO suite
     for quantum simulation of materials; please cite
         "P. Giannozzi et al., J. Phys.:Condens. Matter 21 395502 (2009);
         "P. Giannozzi et al., J. Phys.:Condens. Matter 29 465901 (2017);
          URL http://www.quantum-espresso.org", 
     in publications or presentations arising from this work. More details at
     http://www.quantum-espresso.org/quote

     Parallel version (MPI), running on     1 processors

     MPI processes distributed on     1 nodes
     Waiting for input...
     Reading input from standard input

     Current dimensions of program PWSCF are:
     Max number of different atomic species (ntypx) = 10
     Max number of k-points (npk) =  40000
     Max angular momentum in pseudopotentials (lmaxx) =  3

     Reading input from environ.in

     ================================================================================

     Reading ENVIRON namelist

     Skipping BOUNDARY namelist

     Checking boundary derivatives
     derivatives               = chain          ! SCCS default

     Reading ELECTROSTATIC namelist

     Setting up electrostatic problem
     problem                   = poisson        
     solver                    = direct         

     Checking PBC correction

     ================================================================================
 
     file C.pbe-rrkjus.UPF: wavefunction(s)  2S 2P renormalized
     file O.pbe-rrkjus.UPF: wavefunction(s)  2S renormalized

     Subspace diagonalization in iterative solution of the eigenvalue problem:
     a serial algorithm will be used

 
     G-vector sticks info
     --------------------
     sticks:   dense  smooth     PW     G-vecs:    dense   smooth      PW
     Sum        2205    1099    269               330909   116965   14571
 


     bravais-lattice index     =            8
     lattice parameter (alat)  =      10.6881  a.u.
     unit-cell volume          =    4181.1215 (a.u.)^3
     number of atoms/cell      =           10
     number of atomic types    =            3
     number of electrons       =        89.00
     number of Kohn-Sham states=           80
     kinetic-energy cutoff     =      35.0000  Ry
     charge density cutoff     =     280.0000  Ry
     scf convergence threshold =      5.0E-09
     mixing beta               =       0.2000
     number of iterations used =            8  plain     mixing
     Exchange-correlation= SLA  PW   PBE  PBE
                           (   1   4   3   4   0   0   0)
 

     Environ Module
     ==============

     Please cite
         O. Andreussi, I. Dabo and N. Marzari, J. Chem. Phys. 136, 064102 (2012)         
     in publications or presentations arising from this work.

     compensation onset threshold      =               0.1000E+01

     Electrostatic Setup
     -------------------
     electrostatic problem to solve    = poisson                 
     numerical solver adopted          = direct                  
     type of auxiliary density adopted = none                    
     type of core tool for poisson     = fft                     
     type of core tool for correction  = 1d-analytic             



     celldm(1)=  10.688100  celldm(2)=   0.866025  celldm(3)=   3.954220
     celldm(4)=   0.000000  celldm(5)=   0.000000  celldm(6)=   0.000000

     crystal axes: (cart. coord. in units of alat)
               a(1) = (   1.000000   0.000000   0.000000 )  
               a(2) = (   0.000000   0.866025   0.000000 )  
               a(3) = (   0.000000   0.000000   3.954220 )  

     reciprocal axes: (cart. coord. in units 2 pi/alat)
               b(1) = (  1.000000  0.000000  0.000000 )  
               b(2) = (  0.000000  1.154701  0.000000 )  
               b(3) = (  0.000000  0.000000  0.252894 )  


     PseudoPot. # 1 for C  read from file:
     /home/simplogic86/Work/QE1/pseudo/C.pbe-rrkjus.UPF
     MD5 check sum: c9ac5a99bc85b198593446162950cd17
     Pseudo is Ultrasoft, Zval =  4.0
     Generated by new atomic code, or converted to UPF format
     Using radial grid of  627 points,  4 beta functions with: 
                l(1) =   0
                l(2) =   0
                l(3) =   1
                l(4) =   1
     Q(r) pseudized with 0 coefficients 


     PseudoPot. # 2 for O  read from file:
     /home/simplogic86/Work/QE1/pseudo/O.pbe-rrkjus.UPF
     MD5 check sum: fadcf19ee70a498d3030e2e79cf929a4
     Pseudo is Ultrasoft, Zval =  6.0
     Generated by new atomic code, or converted to UPF format
     Using radial grid of 1269 points,  4 beta functions with: 
                l(1) =   0
                l(2) =   0
                l(3) =   1
                l(4) =   1
     Q(r) pseudized with 0 coefficients 


     PseudoPot. # 3 for Pt read from file:
     /home/simplogic86/Work/QE1/pseudo/Pt.pbe-nd-rrkjus.UPF
     MD5 check sum: b34016df742983190e94d0e746921a01
     Pseudo is Ultrasoft + core correction, Zval = 10.0
     Generated by new atomic code, or converted to UPF format
     Using radial grid of 1547 points,  3 beta functions with: 
                l(1) =   1
                l(2) =   2
                l(3) =   2
     Q(r) pseudized with 0 coefficients 


     atomic species   valence    mass     pseudopotential
        C              4.00     1.00000     C ( 1.00)
        O              6.00     1.00000     O ( 1.00)
        Pt            10.00     1.00000     Pt( 1.00)

     No symmetry found


                                    s                        frac. trans.

      isym =  1     identity                                     

 cryst.   s( 1) = (     1          0          0      )
                  (     0          1          0      )
                  (     0          0          1      )

 cart.    s( 1) = (  1.0000000  0.0000000  0.0000000 )
                  (  0.0000000  1.0000000  0.0000000 )
                  (  0.0000000  0.0000000  1.0000000 )


     point group C_1 (1)    
     there are  1 classes
     the character table:

       E    
A      1.00

     the symmetry operations in each class and the name of the first element:

     E        1
          identity                                               

   Cartesian axes

     site n.     atom                  positions (alat units)
         1           C   tau(   1) = (   0.4991611   0.4347567   1.2070461  )
         2           O   tau(   2) = (   0.4991542   0.4322212   1.4109013  )
         3           Pt  tau(   3) = (   0.7542339   0.0091745   0.8413229  )
         4           Pt  tau(   4) = (   0.2441023   0.0091745   0.8413226  )
         5           Pt  tau(   5) = (   0.0000034   0.4416918   0.8391348  )
         6           Pt  tau(   6) = (   0.4991682   0.4417635   0.8776299  )
         7           Pt  tau(   7) = (   0.0000038   0.7300598   0.4308181  )
         8           Pt  tau(   8) = (   0.4991683   0.7202168   0.4447460  )
         9           Pt  tau(   9) = (   0.2524172   0.2949237   0.4386572  )
        10           Pt  tau(  10) = (   0.7459196   0.2949237   0.4386575  )

   Crystallographic axes

     site n.     atom                  positions (cryst. coord.)
         1           C   tau(   1) = (  0.4991611  0.5020141  0.3052552  )
         2           O   tau(   2) = (  0.4991542  0.4990863  0.3568090  )
         3           Pt  tau(   3) = (  0.7542339  0.0105938  0.2127658  )
         4           Pt  tau(   4) = (  0.2441023  0.0105938  0.2127658  )
         5           Pt  tau(   5) = (  0.0000034  0.5100220  0.2122125  )
         6           Pt  tau(   6) = (  0.4991682  0.5101048  0.2219477  )
         7           Pt  tau(   7) = (  0.0000038  0.8430008  0.1089515  )
         8           Pt  tau(   8) = (  0.4991683  0.8316351  0.1124738  )
         9           Pt  tau(   9) = (  0.2524172  0.3405487  0.1109339  )
        10           Pt  tau(  10) = (  0.7459196  0.3405488  0.1109340  )

     number of k points=     1  Marzari-Vanderbilt smearing, width (Ry)=  0.0300
                       cart. coord. in units 2pi/alat
        k(    1) = (   0.0000000   0.0000000   0.0000000), wk =   2.0000000

                       cryst. coord.
        k(    1) = (   0.0000000   0.0000000   0.0000000), wk =   2.0000000

     Dense  grid:   330909 G-vectors     FFT dimensions: (  60,  50, 225)

     Smooth grid:   116965 G-vectors     FFT dimensions: (  45,  36, 160)

     Dynamical RAM for                 wfc:      17.85 MB

     Dynamical RAM for     wfc (w. buffer):      17.85 MB

     Dynamical RAM for           str. fact:      15.15 MB

     Dynamical RAM for           local pot:       0.00 MB

     Dynamical RAM for          nlocal pot:      26.77 MB

     Dynamical RAM for                qrad:       1.92 MB

     Dynamical RAM for          rho,v,vnew:      30.60 MB

     Dynamical RAM for               rhoin:      10.20 MB

     Dynamical RAM for            rho*nmix:      80.79 MB

     Dynamical RAM for           G-vectors:      19.83 MB

     Dynamical RAM for          h,s,v(r/c):       1.17 MB

     Dynamical RAM for          <psi|beta>:       0.15 MB

     Dynamical RAM for                 psi:      35.69 MB

     Dynamical RAM for                hpsi:      35.69 MB

     Dynamical RAM for                spsi:      35.69 MB

     Dynamical RAM for      wfcinit/wfcrot:      35.84 MB

     Dynamical RAM for           addusdens:     575.62 MB

     Dynamical RAM for          addusforce:     648.85 MB

     Estimated static dynamical RAM per process >     249.04 MB

     Estimated max dynamical RAM per process >     897.89 MB

     Check: negative core charge=   -0.000038

     Initial potential from superposition of free atoms

     starting charge   89.99875, renormalised to   89.00000

     negative rho (up, down):  7.106E-05 0.000E+00
     Starting wfcs are   56 randomized atomic wfcs +   24 random wfcs

     total cpu time spent up to now is        6.6 secs

     Self-consistent Calculation

     iteration #  1     ecut=    35.00 Ry     beta= 0.20
     Davidson diagonalization with overlap
     ethr =  1.00E-02,  avg # of iterations =  8.0

     negative rho (up, down):  7.304E-05 0.000E+00

     total cpu time spent up to now is       12.3 secs

     total energy              =    -735.17449213 Ry
     estimated scf accuracy    <       2.30979550 Ry
     electrostatic embedding   =       0.03381190 Ry
     correction to one-el term =       0.00000000 Ry

     iteration #  2     ecut=    35.00 Ry     beta= 0.20
     Davidson diagonalization with overlap
     ethr =  2.60E-03,  avg # of iterations =  2.0

     negative rho (up, down):  1.329E-04 0.000E+00

     total cpu time spent up to now is       16.6 secs

     total energy              =    -734.89092139 Ry
     estimated scf accuracy    <      17.11811999 Ry
     electrostatic embedding   =       0.03381190 Ry
     correction to one-el term =       0.00000000 Ry

     iteration #  3     ecut=    35.00 Ry     beta= 0.20
     Davidson diagonalization with overlap
     ethr =  2.60E-03,  avg # of iterations =  2.0

     negative rho (up, down):  1.045E-04 0.000E+00

     add environment contribution to local potential

     total cpu time spent up to now is       21.0 secs

     total energy              =    -735.53306258 Ry
     estimated scf accuracy    <       0.51751221 Ry
     electrostatic embedding   =       0.03381190 Ry
     correction to one-el term =       0.00000000 Ry

     iteration #  4     ecut=    35.00 Ry     beta= 0.20
     Davidson diagonalization with overlap
     ethr =  5.81E-04,  avg # of iterations =  9.0

     negative rho (up, down):  1.367E-04 0.000E+00

     add environment contribution to local potential

     total cpu time spent up to now is       26.0 secs

     total energy              =    -735.34038968 Ry
     estimated scf accuracy    <       0.42350072 Ry
     electrostatic embedding   =       0.26934451 Ry
     correction to one-el term =      15.81271376 Ry

     iteration #  5     ecut=    35.00 Ry     beta= 0.20
     Davidson diagonalization with overlap
     ethr =  4.76E-04,  avg # of iterations =  1.0

     negative rho (up, down):  1.327E-04 0.000E+00

     add environment contribution to local potential

     total cpu time spent up to now is       30.3 secs

     total energy              =    -735.31103333 Ry
     estimated scf accuracy    <       0.15039317 Ry
     electrostatic embedding   =       0.25771363 Ry
     correction to one-el term =      14.80058486 Ry

     iteration #  6     ecut=    35.00 Ry     beta= 0.20
     Davidson diagonalization with overlap
     ethr =  1.69E-04,  avg # of iterations =  3.0

     negative rho (up, down):  1.443E-04 0.000E+00

     add environment contribution to local potential

     total cpu time spent up to now is       35.1 secs

     total energy              =    -735.31950288 Ry
     estimated scf accuracy    <       0.02307213 Ry
     electrostatic embedding   =       0.23950793 Ry
     correction to one-el term =      13.20238227 Ry

     iteration #  7     ecut=    35.00 Ry     beta= 0.20
     Davidson diagonalization with overlap
     ethr =  2.59E-05,  avg # of iterations =  8.0

     negative rho (up, down):  1.812E-04 0.000E+00

     add environment contribution to local potential

     total cpu time spent up to now is       40.1 secs

     total energy              =    -735.31854315 Ry
     estimated scf accuracy    <       0.02692374 Ry
     electrostatic embedding   =       0.23325617 Ry
     correction to one-el term =      12.65176178 Ry

     iteration #  8     ecut=    35.00 Ry     beta= 0.20
     Davidson diagonalization with overlap
     ethr =  2.59E-05,  avg # of iterations =  2.0

     negative rho (up, down):  1.767E-04 0.000E+00

     add environment contribution to local potential

     total cpu time spent up to now is       44.2 secs

     total energy              =    -735.31850886 Ry
     estimated scf accuracy    <       0.00617362 Ry
     electrostatic embedding   =       0.22918736 Ry
     correction to one-el term =      12.29151313 Ry

     iteration #  9     ecut=    35.00 Ry     beta= 0.20
     Davidson diagonalization with overlap
     ethr =  6.94E-06,  avg # of iterations =  2.0

     negative rho (up, down):  1.763E-04 0.000E+00

     add environment contribution to local potential

     total cpu time spent up to now is       49.0 secs

     total energy              =    -735.31863500 Ry
     estimated scf accuracy    <       0.00136078 Ry
     electrostatic embedding   =       0.23035563 Ry
     correction to one-el term =      12.39558592 Ry

     iteration # 10     ecut=    35.00 Ry     beta= 0.20
     Davidson diagonalization with overlap
     ethr =  1.53E-06,  avg # of iterations =  9.0

     negative rho (up, down):  1.800E-04 0.000E+00

     add environment contribution to local potential

     total cpu time spent up to now is       53.8 secs

     total energy              =    -735.31883056 Ry
     estimated scf accuracy    <       0.00052093 Ry
     electrostatic embedding   =       0.23120390 Ry
     correction to one-el term =      12.47095660 Ry

     iteration # 11     ecut=    35.00 Ry     beta= 0.20
     Davidson diagonalization with overlap
     ethr =  5.85E-07,  avg # of iterations =  1.0

     negative rho (up, down):  1.757E-04 0.000E+00

     add environment contribution to local potential

     total cpu time spent up to now is       58.1 secs

     total energy              =    -735.31876005 Ry
     estimated scf accuracy    <       0.00080533 Ry
     electrostatic embedding   =       0.23091074 Ry
     correction to one-el term =      12.44530530 Ry

     iteration # 12     ecut=    35.00 Ry     beta= 0.20
     Davidson diagonalization with overlap
     ethr =  5.85E-07,  avg # of iterations =  1.0

     negative rho (up, down):  1.777E-04 0.000E+00

     add environment contribution to local potential

     total cpu time spent up to now is       62.6 secs

     total energy              =    -735.31877290 Ry
     estimated scf accuracy    <       0.00017790 Ry
     electrostatic embedding   =       0.23043353 Ry
     correction to one-el term =      12.40326827 Ry

     iteration # 13     ecut=    35.00 Ry     beta= 0.20
     Davidson diagonalization with overlap
     ethr =  2.00E-07,  avg # of iterations =  1.0

     negative rho (up, down):  1.769E-04 0.000E+00

     add environment contribution to local potential

     total cpu time spent up to now is       67.0 secs

     total energy              =    -735.31878286 Ry
     estimated scf accuracy    <       0.00001221 Ry
     electrostatic embedding   =       0.23020730 Ry
     correction to one-el term =      12.38335948 Ry

     iteration # 14     ecut=    35.00 Ry     beta= 0.20
     Davidson diagonalization with overlap
     ethr =  1.37E-08,  avg # of iterations =  2.0

     negative rho (up, down):  1.768E-04 0.000E+00

     add environment contribution to local potential

     total cpu time spent up to now is       71.4 secs

     total energy              =    -735.31878376 Ry
     estimated scf accuracy    <       0.00001017 Ry
     electrostatic embedding   =       0.23026127 Ry
     correction to one-el term =      12.38813412 Ry

     iteration # 15     ecut=    35.00 Ry     beta= 0.20
     Davidson diagonalization with overlap
     ethr =  1.14E-08,  avg # of iterations =  1.0

     negative rho (up, down):  1.768E-04 0.000E+00

     add environment contribution to local potential

     total cpu time spent up to now is       75.4 secs

     total energy              =    -735.31878422 Ry
     estimated scf accuracy    <       0.00000210 Ry
     electrostatic embedding   =       0.23024104 Ry
     correction to one-el term =      12.38637450 Ry

     iteration # 16     ecut=    35.00 Ry     beta= 0.20
     Davidson diagonalization with overlap
     ethr =  2.36E-09,  avg # of iterations =  1.0

     negative rho (up, down):  1.768E-04 0.000E+00

     add environment contribution to local potential

     total cpu time spent up to now is       79.4 secs

     total energy              =    -735.31878432 Ry
     estimated scf accuracy    <       0.00000029 Ry
     electrostatic embedding   =       0.23026642 Ry
     correction to one-el term =      12.38861707 Ry

     iteration # 17     ecut=    35.00 Ry     beta= 0.20
     Davidson diagonalization with overlap
     ethr =  3.23E-10,  avg # of iterations =  2.0

     negative rho (up, down):  1.768E-04 0.000E+00

     add environment contribution to local potential

     total cpu time spent up to now is       83.9 secs

     total energy              =    -735.31878434 Ry
     estimated scf accuracy    <       0.00000015 Ry
     electrostatic embedding   =       0.23026694 Ry
     correction to one-el term =      12.38866126 Ry

     iteration # 18     ecut=    35.00 Ry     beta= 0.20
     Davidson diagonalization with overlap
     ethr =  1.66E-10,  avg # of iterations =  1.0

     negative rho (up, down):  1.770E-04 0.000E+00

     add environment contribution to local potential

     total cpu time spent up to now is       88.4 secs

     total energy              =    -735.31878435 Ry
     estimated scf accuracy    <       0.00000005 Ry
     electrostatic embedding   =       0.23026502 Ry
     correction to one-el term =      12.38849083 Ry

     iteration # 19     ecut=    35.00 Ry     beta= 0.20
     Davidson diagonalization with overlap
     ethr =  5.19E-11,  avg # of iterations =  1.0

     negative rho (up, down):  1.771E-04 0.000E+00

     add environment contribution to local potential

     total cpu time spent up to now is       93.8 secs

     total energy              =    -735.31878435 Ry
     estimated scf accuracy    <       0.00000003 Ry
     electrostatic embedding   =       0.23025971 Ry
     correction to one-el term =      12.38801926 Ry

     iteration # 20     ecut=    35.00 Ry     beta= 0.20
     Davidson diagonalization with overlap
     ethr =  2.90E-11,  avg # of iterations =  1.0

     negative rho (up, down):  1.773E-04 0.000E+00

     add environment contribution to local potential

     total cpu time spent up to now is       98.6 secs

     total energy              =    -735.31878435 Ry
     estimated scf accuracy    <          6.3E-09 Ry
     electrostatic embedding   =       0.23025412 Ry
     correction to one-el term =      12.38752628 Ry

     iteration # 21     ecut=    35.00 Ry     beta= 0.20
     Davidson diagonalization with overlap
     ethr =  7.12E-12,  avg # of iterations =  1.0

     negative rho (up, down):  1.774E-04 0.000E+00

     add environment contribution to local potential

     total cpu time spent up to now is      103.0 secs

     total energy              =    -735.31878435 Ry
     estimated scf accuracy    <          5.6E-09 Ry
     electrostatic embedding   =       0.23025389 Ry
     correction to one-el term =      12.38750493 Ry

     iteration # 22     ecut=    35.00 Ry     beta= 0.20
     Davidson diagonalization with overlap
     ethr =  6.30E-12,  avg # of iterations =  1.0

     negative rho (up, down):  1.782E-04 0.000E+00

     the potential shift due to the Gaussian-smeared nuclei is    -0.4600 ev

     total cpu time spent up to now is      106.3 secs

     End of self-consistent calculation

          k = 0.0000 0.0000 0.0000 ( 14571 PWs)   bands (ev):

   -29.0471 -16.0140 -14.6763 -13.3400 -12.6292 -12.5222 -12.2193 -12.1834
   -12.0346 -11.3970 -11.3877 -11.1572 -11.0753 -11.0623 -10.9529 -10.8329
   -10.1050 -10.0580  -9.9927  -9.8548  -9.8048  -9.7902  -9.7386  -9.7113
    -9.6947  -9.5062  -9.4802  -9.3373  -9.2258  -9.0103  -8.9435  -8.1282
    -8.0392  -7.8085  -7.5519  -7.5028  -7.4413  -7.2832  -7.1128  -7.0163
    -6.8437  -6.8341  -6.6181  -6.6159  -6.5805  -6.4174  -6.2442  -5.0883
    -4.8497  -4.8179  -4.1026  -3.5369  -3.1856  -2.0089  -1.8633  -1.7155
    -0.6942  -0.2592   0.7645   1.0764   1.1990   1.7782   2.1854   2.4530
     2.4839   3.2886   4.1504   4.8898   5.0012   5.1752   5.4182   5.6783
     5.9949   6.0767   6.5358   6.9516   7.0514   7.3140   7.6962   7.7516

     occupation numbers 
     1.0000   1.0000   1.0000   1.0000   1.0000   1.0000   1.0000   1.0000
     1.0000   1.0000   1.0000   1.0000   1.0000   1.0000   1.0000   1.0000
     1.0000   1.0000   1.0000   1.0000   1.0000   1.0000   1.0000   1.0000
     1.0000   1.0000   1.0000   1.0000   1.0000   1.0000   1.0000   1.0000
     1.0000   1.0004   1.0067   1.0101   1.0164   1.0439   1.0793   1.0808
     0.9891   0.9794   0.6507   0.6467   0.5814   0.3033   0.1118   0.0000
     0.0000   0.0000   0.0000   0.0000   0.0000   0.0000   0.0000   0.0000
     0.0000   0.0000   0.0000   0.0000   0.0000   0.0000   0.0000   0.0000
     0.0000   0.0000   0.0000   0.0000   0.0000   0.0000   0.0000   0.0000
     0.0000   0.0000   0.0000   0.0000   0.0000   0.0000   0.0000   0.0000

     the Fermi energy is    -6.4792 ev

!    total energy              =    -735.31878435 Ry
     estimated scf accuracy    <          1.7E-09 Ry
     smearing contrib. (-TS)   =      -0.00037531 Ry
     internal energy E=F+TS    =    -735.31840904 Ry

     The total energy is F=E-TS. E is the sum of the following terms:
     one-electron contribution =   -3948.25427696 Ry
     hartree contribution      =    2005.74747439 Ry
     xc contribution           =    -378.63395620 Ry
     ewald contribution        =    1573.20467954 Ry
     electrostatic embedding   =       0.23025290 Ry
     correction to one-el term =      12.38741730 Ry

     WARNING: you are using the parabolic pbc correction;
              the potential shift above must be added to 
              band and Fermi energies.

     convergence has been achieved in  22 iterations

     negative rho (up, down):  1.782E-04 0.000E+00
     The global environment contribution to forces
     atom    1 type  1   force =     0.00000000    0.00000000    0.12401959
     atom    2 type  2   force =     0.00000000    0.00000000    0.26461093
     atom    3 type  3   force =     0.00000000    0.00000000    0.07508559
     atom    4 type  3   force =     0.00000000    0.00000000    0.07508545
     atom    5 type  3   force =     0.00000000    0.00000000    0.07367986
     atom    6 type  3   force =     0.00000000    0.00000000    0.09841151
     atom    7 type  3   force =     0.00000000    0.00000000   -0.18864823
     atom    8 type  3   force =     0.00000000    0.00000000   -0.17970008
     atom    9 type  3   force =     0.00000000    0.00000000   -0.18361186
     atom   10 type  3   force =     0.00000000    0.00000000   -0.18361169
 

     Forces acting on atoms (cartesian axes, Ry/au):

     atom    1 type  1   force =    -0.00000604   -0.00412670    0.12261863
     atom    2 type  2   force =     0.00010010    0.00152783   -0.06330175
     atom    3 type  3   force =    -0.00085499    0.01330213    0.03623808
     atom    4 type  3   force =     0.00190956    0.01359558    0.03691489
     atom    5 type  3   force =    -0.00183968    0.01271997    0.00147148
     atom    6 type  3   force =     0.00075558    0.00796727    0.03100974
     atom    7 type  3   force =    -0.00159156   -0.01416387   -0.04727579
     atom    8 type  3   force =     0.00046235   -0.01790385   -0.02823804
     atom    9 type  3   force =     0.01622121   -0.00664548   -0.04495468
     atom   10 type  3   force =    -0.01515652   -0.00627288   -0.04448255
     The non-local contrib.  to forces
     atom    1 type  1   force =    -0.00007577   -0.00617062    0.51248650
     atom    2 type  2   force =     0.00024251    0.04107718   -3.25335641
     atom    3 type  3   force =    -0.02646735   -0.00137946   -0.10315205
     atom    4 type  3   force =     0.02659521   -0.00121426   -0.10357923
     atom    5 type  3   force =     0.00096689    0.00389945   -0.15509395
     atom    6 type  3   force =    -0.00082129   -0.01655443    0.48094683
     atom    7 type  3   force =     0.00059466    0.02312853    0.07602884
     atom    8 type  3   force =    -0.00091149   -0.01739375    0.10098255
     atom    9 type  3   force =     0.01722219   -0.00295750    0.06288080
     atom   10 type  3   force =    -0.01711299   -0.00262894    0.06173245
     The ionic contribution  to forces
     atom    1 type  1   force =     0.00636806    0.05296760   19.96835427
     atom    2 type  2   force =     0.00226724   -0.13041391   48.33963012
     atom    3 type  3   force =     0.50324609   -0.09020628   30.03736972
     atom    4 type  3   force =    -0.49292694   -0.08303178   30.06216876
     atom    5 type  3   force =    -0.07802400    0.12039865   29.68099553
     atom    6 type  3   force =     0.05586768    0.10046245   29.12582959
     atom    7 type  3   force =    -0.06942211   -0.08855591  -48.10896481
     atom    8 type  3   force =     0.05843526    0.13450123  -45.70999247
     atom    9 type  3   force =     0.08482129   -0.01166389  -46.71013044
     atom   10 type  3   force =    -0.07063256   -0.00445817  -46.68526027
     The local contribution  to forces
     atom    1 type  1   force =    -0.00630480   -0.05090928  -20.48209719
     atom    2 type  2   force =    -0.00241617    0.09088091  -45.41404655
     atom    3 type  3   force =    -0.48023497    0.10833771  -29.96525563
     atom    4 type  3   force =     0.47102081    0.10121815  -29.98909410
     atom    5 type  3   force =     0.07477713   -0.10786248  -29.59492249
     atom    6 type  3   force =    -0.05402869   -0.07211846  -29.74415779
     atom    7 type  3   force =     0.06675315    0.04333819   48.15894859
     atom    8 type  3   force =    -0.05670948   -0.13067418   45.74293352
     atom    9 type  3   force =    -0.09290213    0.00376166   46.76860070
     atom   10 type  3   force =     0.07985397   -0.00343102   46.74521888
     The core correction contribution to forces
     atom    1 type  1   force =     0.00000000    0.00000000    0.00000000
     atom    2 type  2   force =     0.00000000    0.00000000    0.00000000
     atom    3 type  3   force =     0.00260790   -0.00343987   -0.00771718
     atom    4 type  3   force =    -0.00279894   -0.00336661   -0.00757280
     atom    5 type  3   force =     0.00043359   -0.00369750   -0.00309982
     atom    6 type  3   force =    -0.00026845   -0.00381015    0.07006156
     atom    7 type  3   force =     0.00047493    0.00793905    0.01544182
     atom    8 type  3   force =    -0.00035740   -0.00431981    0.01763058
     atom    9 type  3   force =     0.00706982    0.00422753    0.01739704
     atom   10 type  3   force =    -0.00726763    0.00425870    0.01752860
     The Hubbard contrib.    to forces
     atom    1 type  1   force =     0.00000000    0.00000000    0.00000000
     atom    2 type  2   force =     0.00000000    0.00000000    0.00000000
     atom    3 type  3   force =     0.00000000    0.00000000    0.00000000
     atom    4 type  3   force =     0.00000000    0.00000000    0.00000000
     atom    5 type  3   force =     0.00000000    0.00000000    0.00000000
     atom    6 type  3   force =     0.00000000    0.00000000    0.00000000
     atom    7 type  3   force =     0.00000000    0.00000000    0.00000000
     atom    8 type  3   force =     0.00000000    0.00000000    0.00000000
     atom    9 type  3   force =     0.00000000    0.00000000    0.00000000
     atom   10 type  3   force =     0.00000000    0.00000000    0.00000000
     The SCF correction term to forces
     atom    1 type  1   force =     0.00000003   -0.00000095   -0.00000886
     atom    2 type  2   force =     0.00000009   -0.00000290   -0.00000416
     atom    3 type  3   force =    -0.00001309    0.00000347    0.00004331
     atom    4 type  3   force =     0.00001299    0.00000354    0.00004249
     atom    5 type  3   force =     0.00000028   -0.00000471    0.00004803
     atom    6 type  3   force =    -0.00000010    0.00000130    0.00005374
     atom    7 type  3   force =     0.00000137   -0.00000027    0.00005369
     atom    8 type  3   force =    -0.00000097   -0.00000389    0.00004354
     atom    9 type  3   force =     0.00000361    0.00000017    0.00004476
     atom   10 type  3   force =    -0.00000373    0.00000001    0.00004516

     Total force =     0.177283     Total SCF correction =     0.000135

     Writing output data file /home/simplogic86/Work/QE1/tempdir/PtCO_vacuum.save/
 
     init_run     :      6.06s CPU      6.48s WALL (       1 calls)
     electrons    :     90.88s CPU     99.71s WALL (       1 calls)
     forces       :      3.37s CPU      3.70s WALL (       1 calls)

     Called by init_run:
     wfcinit      :      0.79s CPU      0.80s WALL (       1 calls)
     wfcinit:atom :      0.01s CPU      0.01s WALL (       1 calls)
     wfcinit:wfcr :      0.75s CPU      0.76s WALL (       1 calls)
     potinit      :      1.19s CPU      1.24s WALL (       1 calls)
     hinit0       :      3.20s CPU      3.23s WALL (       1 calls)

     Called by electrons:
     c_bands      :     39.77s CPU     40.89s WALL (      22 calls)
     sum_band     :     26.31s CPU     29.39s WALL (      22 calls)
     v_of_rho     :      7.15s CPU      8.14s WALL (      23 calls)
     v_h          :      0.29s CPU      0.30s WALL (      23 calls)
     v_xc         :      7.19s CPU      8.23s WALL (      24 calls)
     newd         :     14.14s CPU     18.10s WALL (      23 calls)
     mix_rho      :      0.99s CPU      1.00s WALL (      22 calls)

     Called by c_bands:
     init_us_2    :      0.35s CPU      0.35s WALL (      45 calls)
     cegterg      :     37.94s CPU     39.03s WALL (      22 calls)

     Called by sum_band:
     sum_band:wei :      0.00s CPU      0.00s WALL (      22 calls)
     sum_band:loo :      7.60s CPU      7.61s WALL (      22 calls)
     sum_band:buf :      0.00s CPU      0.00s WALL (      22 calls)
     sum_band:ini :      0.18s CPU      0.18s WALL (      22 calls)
     sum_band:cal :      0.79s CPU      0.79s WALL (      22 calls)
     sum_band:bec :      0.00s CPU      0.00s WALL (      22 calls)
     addusdens    :     18.36s CPU     21.40s WALL (      22 calls)
     addusd:skk   :      0.32s CPU      0.37s WALL (      66 calls)
     addusd:dgemm :      2.12s CPU      4.87s WALL (      66 calls)
     addusd:qvan2 :     14.71s CPU     14.77s WALL (      66 calls)

     Called by *egterg:
     cdiaghg      :      0.56s CPU      0.58s WALL (      82 calls)
     cegterg:over :      2.57s CPU      2.57s WALL (      60 calls)
     cegterg:upda :      1.35s CPU      1.44s WALL (      60 calls)
     cegterg:last :      2.73s CPU      2.73s WALL (      35 calls)
     h_psi        :     28.04s CPU     28.83s WALL (      83 calls)
     s_psi        :      1.75s CPU      1.78s WALL (      83 calls)
     g_psi        :      0.09s CPU      0.09s WALL (      60 calls)

     Called by h_psi:
     h_psi:calbec :      1.76s CPU      1.76s WALL (      83 calls)
     vloc_psi     :     24.30s CPU     24.97s WALL (      83 calls)
     add_vuspsi   :      1.78s CPU      1.78s WALL (      83 calls)

     General routines
     calbec       :      2.72s CPU      2.74s WALL (     109 calls)
     fft          :      2.34s CPU      2.43s WALL (     308 calls)
     ffts         :      0.13s CPU      0.13s WALL (      45 calls)
     fftw         :     26.94s CPU     27.50s WALL (    9484 calls)
     interpolate  :      0.30s CPU      0.30s WALL (      23 calls)
 
     Parallel routines
 
     Environ routines
 
     PWSCF        :   1m40.40s CPU   1m50.02s WALL

 
   This run was terminated on:  15:37:18  25Sep2021            

=------------------------------------------------------------------------------=
   JOB DONE.
=------------------------------------------------------------------------------=
