
     Program PWSCF v.6.1 (svn rev. 13369) starts on 29Jan2018 at 16:48:50 

     This program is part of the open-source Quantum ESPRESSO suite
     for quantum simulation of materials; please cite
         "P. Giannozzi et al., J. Phys.:Condens. Matter 21 395502 (2009);
          URL http://www.quantum-espresso.org", 
     in publications or presentations arising from this work. More details at
     http://www.quantum-espresso.org/quote

     Parallel version (MPI), running on     8 processors
     R & G space division:  proc/nbgrp/npool/nimage =       8
     Waiting for input...
     Reading input from standard input

     Current dimensions of program PWSCF are:
     Max number of different atomic species (ntypx) = 10
     Max number of k-points (npk) =  40000
     Max angular momentum in pseudopotentials (lmaxx) =  3
               file H.pbe-rrkjus.UPF: wavefunction(s)  1S renormalized
               file O.pbe-rrkjus.UPF: wavefunction(s)  2S renormalized

     Subspace diagonalization in iterative solution of the eigenvalue problem:
     a serial algorithm will be used

 
     Parallelization info
     --------------------
     sticks:   dense  smooth     PW     G-vecs:    dense   smooth      PW
     Min        1950     975    242               183178    64767    8072
     Max        1952     977    243               183179    64769    8075
     Sum       15613    7809   1941              1465425   518139   64589
 


     bravais-lattice index     =            0
     lattice parameter (alat)  =      26.4562  a.u.
     unit-cell volume          =   18517.4301 (a.u.)^3
     number of atoms/cell      =           30
     number of atomic types    =            2
     number of electrons       =        80.00
     number of Kohn-Sham states=           40
     kinetic-energy cutoff     =      35.0000  Ry
     charge density cutoff     =     280.0000  Ry
     convergence threshold     =      2.0E-08
     mixing beta               =       0.3000
     number of iterations used =            8  plain     mixing
     Exchange-correlation      =  SLA  PW   PBE  PBE ( 1  4  3  4 0 0)
 

     Environ Module
     ==============

     Plese cite
         O. Andreussi, I. Dabo and N. Marzari, J. Chem. Phys. 136, 064102 (2012)         
     in publications or presentations arising from this work.

     compensation onset threshold      =               0.1000E+01 
     static permittivity               =                    78.30 
     epsilon calculation mode          =               electronic 
     surface tension in input (dyn/cm) =                    50.00 
     surface tension in internal units =               0.6423E-04 
     external pressure in input (GPa)  =                    -0.35 
     external pressure in inter. units =              -0.2379E-04 

     Electrostatic Setup
     -------------------
     electrostatic problem to solve    = generalized              
     numerical solver adopted          = cg                       
     type of auxiliary density adopted = none                     
     type of core tool for poisson     = fft                      
     type of core tool for s(r) deriv  = analytic                 


     Assuming isolated system, Martyna-Tuckerman method


     celldm(1)=  26.456166  celldm(2)=   0.000000  celldm(3)=   0.000000
     celldm(4)=   0.000000  celldm(5)=   0.000000  celldm(6)=   0.000000

     crystal axes: (cart. coord. in units of alat)
               a(1) = (   1.000000   0.000000   0.000000 )  
               a(2) = (   0.000000   1.000000   0.000000 )  
               a(3) = (   0.000000   0.000000   1.000000 )  

     reciprocal axes: (cart. coord. in units 2 pi/alat)
               b(1) = (  1.000000  0.000000  0.000000 )  
               b(2) = (  0.000000  1.000000  0.000000 )  
               b(3) = (  0.000000  0.000000  1.000000 )  


     PseudoPot. # 1 for H  read from file:
     /home/fnattino/Programs/qe-6.1/pseudo/H.pbe-rrkjus.UPF
     MD5 check sum: 7cc9d459525c9a0585f487a71c3c9563
     Pseudo is Ultrasoft, Zval =  1.0
     Generated by new atomic code, or converted to UPF format
     Using radial grid of 1061 points,  2 beta functions with: 
                l(1) =   0
                l(2) =   0
     Q(r) pseudized with 0 coefficients 


     PseudoPot. # 2 for O  read from file:
     /home/fnattino/Programs/qe-6.1/pseudo/O.pbe-rrkjus.UPF
     MD5 check sum: 390ba29e75625707450f3bd3f0eb6be9
     Pseudo is Ultrasoft, Zval =  6.0
     Generated by new atomic code, or converted to UPF format
     Using radial grid of 1269 points,  4 beta functions with: 
                l(1) =   0
                l(2) =   0
                l(3) =   1
                l(4) =   1
     Q(r) pseudized with 0 coefficients 


     atomic species   valence    mass     pseudopotential
        H              1.00     1.00794     H ( 1.00)
        O              6.00    15.99940     O ( 1.00)

     No symmetry found


                                    s                        frac. trans.

      isym =  1     identity                                     

 cryst.   s( 1) = (     1          0          0      )
                  (     0          1          0      )
                  (     0          0          1      )

 cart.    s( 1) = (  1.0000000  0.0000000  0.0000000 )
                  (  0.0000000  1.0000000  0.0000000 )
                  (  0.0000000  0.0000000  1.0000000 )


   Cartesian axes

     site n.     atom                  positions (alat units)
         1           O   tau(   1) = (   0.6957700   0.6855114   0.4644188  )
         2           H   tau(   2) = (   0.7306486   0.7273686   0.4222045  )
         3           H   tau(   3) = (   0.6343129   0.7176614   0.4766545  )
         4           O   tau(   4) = (   0.6657129   0.4864757   0.4344760  )
         5           H   tau(   5) = (   0.6785629   0.5550186   0.4363974  )
         6           H   tau(   6) = (   0.6921843   0.4624329   0.4944974  )
         7           O   tau(   7) = (   0.5221557   0.7567686   0.5198402  )
         8           H   tau(   8) = (   0.4897343   0.8122043   0.4947402  )
         9           H   tau(   9) = (   0.4745771   0.7035614   0.5154760  )
        10           O   tau(  10) = (   0.4803486   0.4447186   0.4503402  )
        11           H   tau(  11) = (   0.5483914   0.4622257   0.4388545  )
        12           H   tau(  12) = (   0.4614343   0.4068186   0.3959688  )
        13           O   tau(  13) = (   0.7065986   0.4282186   0.6234688  )
        14           H   tau(  14) = (   0.6385200   0.4135114   0.6381188  )
        15           H   tau(  15) = (   0.7430771   0.3754971   0.6487474  )
        16           O   tau(  16) = (   0.5196843   0.3976686   0.6452045  )
        17           H   tau(  17) = (   0.4871771   0.4506186   0.6772760  )
        18           H   tau(  18) = (   0.4966557   0.4010971   0.5794974  )
        19           O   tau(  19) = (   0.5641700   0.7000971   0.7160760  )
        20           H   tau(  20) = (   0.5505343   0.7358757   0.6580117  )
        21           H   tau(  21) = (   0.6284843   0.6739471   0.7040474  )
        22           O   tau(  22) = (   0.4318486   0.5647900   0.7140545  )
        23           H   tau(  23) = (   0.3939557   0.5713900   0.7712474  )
        24           H   tau(  24) = (   0.4836414   0.6137329   0.7196188  )
        25           O   tau(  25) = (   0.3983414   0.6136900   0.5211760  )
        26           H   tau(  26) = (   0.4211414   0.5564900   0.4880688  )
        27           H   tau(  27) = (   0.3953843   0.5944543   0.5882688  )
        28           O   tau(  28) = (   0.7377414   0.6260686   0.6592688  )
        29           H   tau(  29) = (   0.7335271   0.5566686   0.6534545  )
        30           H   tau(  30) = (   0.7385414   0.6482757   0.5933831  )

   Crystallographic axes

     site n.     atom                  positions (cryst. coord.)
         1           O   tau(   1) = (  0.6957700  0.6855114  0.4644188  )
         2           H   tau(   2) = (  0.7306486  0.7273686  0.4222045  )
         3           H   tau(   3) = (  0.6343129  0.7176614  0.4766545  )
         4           O   tau(   4) = (  0.6657129  0.4864757  0.4344760  )
         5           H   tau(   5) = (  0.6785629  0.5550186  0.4363974  )
         6           H   tau(   6) = (  0.6921843  0.4624329  0.4944974  )
         7           O   tau(   7) = (  0.5221557  0.7567686  0.5198402  )
         8           H   tau(   8) = (  0.4897343  0.8122043  0.4947402  )
         9           H   tau(   9) = (  0.4745771  0.7035614  0.5154760  )
        10           O   tau(  10) = (  0.4803486  0.4447186  0.4503402  )
        11           H   tau(  11) = (  0.5483914  0.4622257  0.4388545  )
        12           H   tau(  12) = (  0.4614343  0.4068186  0.3959688  )
        13           O   tau(  13) = (  0.7065986  0.4282186  0.6234688  )
        14           H   tau(  14) = (  0.6385200  0.4135114  0.6381188  )
        15           H   tau(  15) = (  0.7430771  0.3754971  0.6487474  )
        16           O   tau(  16) = (  0.5196843  0.3976686  0.6452045  )
        17           H   tau(  17) = (  0.4871771  0.4506186  0.6772760  )
        18           H   tau(  18) = (  0.4966557  0.4010971  0.5794974  )
        19           O   tau(  19) = (  0.5641700  0.7000971  0.7160760  )
        20           H   tau(  20) = (  0.5505343  0.7358757  0.6580117  )
        21           H   tau(  21) = (  0.6284843  0.6739471  0.7040474  )
        22           O   tau(  22) = (  0.4318486  0.5647900  0.7140545  )
        23           H   tau(  23) = (  0.3939557  0.5713900  0.7712474  )
        24           H   tau(  24) = (  0.4836414  0.6137329  0.7196188  )
        25           O   tau(  25) = (  0.3983414  0.6136900  0.5211760  )
        26           H   tau(  26) = (  0.4211414  0.5564900  0.4880688  )
        27           H   tau(  27) = (  0.3953843  0.5944543  0.5882688  )
        28           O   tau(  28) = (  0.7377414  0.6260686  0.6592688  )
        29           H   tau(  29) = (  0.7335271  0.5566686  0.6534545  )
        30           H   tau(  30) = (  0.7385414  0.6482757  0.5933831  )

     number of k points=     1
                       cart. coord. in units 2pi/alat
        k(    1) = (   0.0000000   0.0000000   0.0000000), wk =   2.0000000

                       cryst. coord.
        k(    1) = (   0.0000000   0.0000000   0.0000000), wk =   2.0000000

     Dense  grid:  1465425 G-vectors     FFT dimensions: ( 144, 144, 144)

     Smooth grid:   518139 G-vectors     FFT dimensions: ( 100, 100, 100)

     Estimated max dynamical RAM per process >     161.02MB

     Estimated total allocated dynamical RAM >    1288.17MB

     Initial potential from superposition of free atoms
     Check: negative starting charge=   -0.001447

     starting charge   78.07590, renormalised to   80.00000

     negative rho (up, down):  1.482E-03 0.000E+00
     Starting wfc are   60 randomized atomic wfcs

     total cpu time spent up to now is        5.2 secs

     per-process dynamical memory:   247.6 Mb

     Self-consistent Calculation

     iteration #  1     ecut=    35.00 Ry     beta=0.30
     Davidson diagonalization with overlap
     ethr =  1.00E-02,  avg # of iterations =  3.0

     negative rho (up, down):  9.578E-04 0.000E+00

     total cpu time spent up to now is        9.7 secs

     total energy              =    -343.60222043 Ry
     Harris-Foulkes estimate   =    -346.13522202 Ry
     estimated scf accuracy    <       5.96628147 Ry
     electrostatic embedding   =       0.00000000 Ry
     cavitation energy         =       0.11084234 Ry
     PV energy                 =      -0.15362324 Ry
     correction to one-el term =       0.00000000 Ry

     iteration #  2     ecut=    35.00 Ry     beta=0.30
     Davidson diagonalization with overlap
     ethr =  7.46E-03,  avg # of iterations =  1.0

     negative rho (up, down):  1.436E-03 0.000E+00

     total cpu time spent up to now is       13.8 secs

     total energy              =    -342.27036424 Ry
     Harris-Foulkes estimate   =    -343.81567437 Ry
     estimated scf accuracy    <       2.17119020 Ry
     electrostatic embedding   =       0.00000000 Ry
     cavitation energy         =       0.09638815 Ry
     PV energy                 =      -0.12641697 Ry
     correction to one-el term =       0.00000000 Ry

     iteration #  3     ecut=    35.00 Ry     beta=0.30
     Davidson diagonalization with overlap
     ethr =  2.71E-03,  avg # of iterations =  3.0

     negative rho (up, down):  1.852E-03 0.000E+00

     total cpu time spent up to now is       18.7 secs

     total energy              =    -343.17227162 Ry
     Harris-Foulkes estimate   =    -343.34610446 Ry
     estimated scf accuracy    <       1.18035499 Ry
     electrostatic embedding   =       0.00000000 Ry
     cavitation energy         =       0.06404304 Ry
     PV energy                 =      -0.06525633 Ry
     correction to one-el term =       0.00000000 Ry

     iteration #  4     ecut=    35.00 Ry     beta=0.30
     Davidson diagonalization with overlap
     ethr =  1.48E-03,  avg # of iterations =  1.0

     negative rho (up, down):  1.827E-03 0.000E+00

     add environment contribution to local potential

     total cpu time spent up to now is       28.8 secs

     total energy              =    -342.64283608 Ry
     Harris-Foulkes estimate   =    -343.21028914 Ry
     estimated scf accuracy    <       0.82238194 Ry
     electrostatic embedding   =       0.00000000 Ry
     cavitation energy         =       0.06586161 Ry
     PV energy                 =      -0.06864221 Ry
     correction to one-el term =       0.00000000 Ry

     iteration #  5     ecut=    35.00 Ry     beta=0.30
     Davidson diagonalization with overlap
     ethr =  1.03E-03,  avg # of iterations =  3.0

     negative rho (up, down):  1.543E-03 0.000E+00

     total cpu time spent up to now is       33.4 secs

     total energy              =    -342.95387012 Ry
     Harris-Foulkes estimate   =    -340.78792567 Ry
     estimated scf accuracy    <       1.23335041 Ry
     electrostatic embedding   =      -0.04308783 Ry
     cavitation energy         =       0.06287908 Ry
     PV energy                 =      -0.05911639 Ry
     correction to one-el term =      -2.66254087 Ry

     iteration #  6     ecut=    35.00 Ry     beta=0.30
     Davidson diagonalization with overlap
     ethr =  1.03E-03,  avg # of iterations =  2.0

     negative rho (up, down):  1.806E-03 0.000E+00

     add environment contribution to local potential

     total cpu time spent up to now is       41.6 secs

     total energy              =    -343.07410735 Ry
     Harris-Foulkes estimate   =    -340.38189673 Ry
     estimated scf accuracy    <       0.13574395 Ry
     electrostatic embedding   =      -0.04280753 Ry
     cavitation energy         =       0.06054916 Ry
     PV energy                 =      -0.05475410 Ry
     correction to one-el term =      -2.65702380 Ry

     iteration #  7     ecut=    35.00 Ry     beta=0.30
     Davidson diagonalization with overlap
     ethr =  1.70E-04,  avg # of iterations =  1.0

     negative rho (up, down):  1.479E-03 0.000E+00

     add environment contribution to local potential

     total cpu time spent up to now is       50.3 secs

     total energy              =    -343.04719790 Ry
     Harris-Foulkes estimate   =    -341.91743543 Ry
     estimated scf accuracy    <       0.13111929 Ry
     electrostatic embedding   =      -0.06185586 Ry
     cavitation energy         =       0.06014587 Ry
     PV energy                 =      -0.05393304 Ry
     correction to one-el term =      -1.13720326 Ry

     iteration #  8     ecut=    35.00 Ry     beta=0.30
     Davidson diagonalization with overlap
     ethr =  1.64E-04,  avg # of iterations =  3.0

     negative rho (up, down):  9.708E-04 0.000E+00

     add environment contribution to local potential

     total cpu time spent up to now is       59.1 secs

     total energy              =    -343.09809339 Ry
     Harris-Foulkes estimate   =    -342.49645225 Ry
     estimated scf accuracy    <       0.00300773 Ry
     electrostatic embedding   =      -0.08213844 Ry
     cavitation energy         =       0.05866782 Ry
     PV energy                 =      -0.05123411 Ry
     correction to one-el term =      -0.52194695 Ry

     iteration #  9     ecut=    35.00 Ry     beta=0.30
     Davidson diagonalization with overlap
     ethr =  3.76E-06,  avg # of iterations =  5.0

     negative rho (up, down):  1.950E-03 0.000E+00

     add environment contribution to local potential

     total cpu time spent up to now is       68.5 secs

     total energy              =    -343.10377832 Ry
     Harris-Foulkes estimate   =    -342.71774961 Ry
     estimated scf accuracy    <       0.03553386 Ry
     electrostatic embedding   =      -0.08739109 Ry
     cavitation energy         =       0.05811054 Ry
     PV energy                 =      -0.05008404 Ry
     correction to one-el term =      -0.31006010 Ry

     iteration # 10     ecut=    35.00 Ry     beta=0.30
     Davidson diagonalization with overlap
     ethr =  3.76E-06,  avg # of iterations =  2.0

     negative rho (up, down):  1.671E-03 0.000E+00

     add environment contribution to local potential

     total cpu time spent up to now is       77.3 secs

     total energy              =    -343.09968791 Ry
     Harris-Foulkes estimate   =    -343.03276618 Ry
     estimated scf accuracy    <       0.02563007 Ry
     electrostatic embedding   =      -0.09227872 Ry
     cavitation energy         =       0.05783598 Ry
     PV energy                 =      -0.04949630 Ry
     correction to one-el term =       0.01242415 Ry

     iteration # 11     ecut=    35.00 Ry     beta=0.30
     Davidson diagonalization with overlap
     ethr =  3.76E-06,  avg # of iterations =  3.0

     negative rho (up, down):  1.260E-03 0.000E+00

     add environment contribution to local potential

     total cpu time spent up to now is       86.4 secs

     total energy              =    -343.09742816 Ry
     Harris-Foulkes estimate   =    -343.10203254 Ry
     estimated scf accuracy    <       0.01152421 Ry
     electrostatic embedding   =      -0.09966370 Ry
     cavitation energy         =       0.05781423 Ry
     PV energy                 =      -0.04973954 Ry
     correction to one-el term =       0.09343687 Ry

     iteration # 12     ecut=    35.00 Ry     beta=0.30
     Davidson diagonalization with overlap
     ethr =  3.76E-06,  avg # of iterations =  3.0

     negative rho (up, down):  1.097E-03 0.000E+00

     add environment contribution to local potential

     total cpu time spent up to now is       94.9 secs

     total energy              =    -343.09654992 Ry
     Harris-Foulkes estimate   =    -343.04431863 Ry
     estimated scf accuracy    <       0.00484895 Ry
     electrostatic embedding   =      -0.09845815 Ry
     cavitation energy         =       0.05797121 Ry
     PV energy                 =      -0.05007374 Ry
     correction to one-el term =       0.03707261 Ry

     iteration # 13     ecut=    35.00 Ry     beta=0.30
     Davidson diagonalization with overlap
     ethr =  3.76E-06,  avg # of iterations =  3.0

     negative rho (up, down):  1.439E-03 0.000E+00

     add environment contribution to local potential

     total cpu time spent up to now is      103.9 secs

     total energy              =    -343.09640399 Ry
     Harris-Foulkes estimate   =    -343.00643745 Ry
     estimated scf accuracy    <       0.00169942 Ry
     electrostatic embedding   =      -0.09796980 Ry
     cavitation energy         =       0.05811373 Ry
     PV energy                 =      -0.05039544 Ry
     correction to one-el term =      -0.00020485 Ry

     iteration # 14     ecut=    35.00 Ry     beta=0.30
     Davidson diagonalization with overlap
     ethr =  2.12E-06,  avg # of iterations =  3.0

     negative rho (up, down):  8.890E-04 0.000E+00

     add environment contribution to local potential

     total cpu time spent up to now is      112.1 secs

     total energy              =    -343.09633645 Ry
     Harris-Foulkes estimate   =    -342.93614125 Ry
     estimated scf accuracy    <       0.00040775 Ry
     electrostatic embedding   =      -0.09860746 Ry
     cavitation energy         =       0.05839697 Ry
     PV energy                 =      -0.05106683 Ry
     correction to one-el term =      -0.06907623 Ry

     iteration # 15     ecut=    35.00 Ry     beta=0.30
     Davidson diagonalization with overlap
     ethr =  5.10E-07,  avg # of iterations =  4.0

     negative rho (up, down):  8.316E-04 0.000E+00

     add environment contribution to local potential

     total cpu time spent up to now is      121.1 secs

     total energy              =    -343.09579548 Ry
     Harris-Foulkes estimate   =    -342.69401262 Ry
     estimated scf accuracy    <       0.00120709 Ry
     electrostatic embedding   =      -0.09580108 Ry
     cavitation energy         =       0.05910998 Ry
     PV energy                 =      -0.05262461 Ry
     correction to one-el term =      -0.31306953 Ry

     iteration # 16     ecut=    35.00 Ry     beta=0.30
     Davidson diagonalization with overlap
     ethr =  5.10E-07,  avg # of iterations =  3.0

     negative rho (up, down):  1.167E-03 0.000E+00

     add environment contribution to local potential

     total cpu time spent up to now is      130.3 secs

     total energy              =    -343.09601539 Ry
     Harris-Foulkes estimate   =    -342.67785520 Ry
     estimated scf accuracy    <       0.00011753 Ry
     electrostatic embedding   =      -0.09601360 Ry
     cavitation energy         =       0.05914030 Ry
     PV energy                 =      -0.05269071 Ry
     correction to one-el term =      -0.32862274 Ry

     iteration # 17     ecut=    35.00 Ry     beta=0.30
     Davidson diagonalization with overlap
     ethr =  1.47E-07,  avg # of iterations =  3.0

     negative rho (up, down):  1.231E-03 0.000E+00

     add environment contribution to local potential

     total cpu time spent up to now is      138.9 secs

     total energy              =    -343.09617064 Ry
     Harris-Foulkes estimate   =    -342.78158732 Ry
     estimated scf accuracy    <       0.00005548 Ry
     electrostatic embedding   =      -0.09815695 Ry
     cavitation energy         =       0.05895577 Ry
     PV energy                 =      -0.05229541 Ry
     correction to one-el term =      -0.22310858 Ry

     iteration # 18     ecut=    35.00 Ry     beta=0.30
     Davidson diagonalization with overlap
     ethr =  6.93E-08,  avg # of iterations =  2.0

     negative rho (up, down):  1.275E-03 0.000E+00

     add environment contribution to local potential

     total cpu time spent up to now is      147.8 secs

     total energy              =    -343.09620592 Ry
     Harris-Foulkes estimate   =    -342.80578493 Ry
     estimated scf accuracy    <       0.00000874 Ry
     electrostatic embedding   =      -0.09882262 Ry
     cavitation energy         =       0.05891204 Ry
     PV energy                 =      -0.05220427 Ry
     correction to one-el term =      -0.19830858 Ry

     iteration # 19     ecut=    35.00 Ry     beta=0.30
     Davidson diagonalization with overlap
     ethr =  1.09E-08,  avg # of iterations =  4.0

     negative rho (up, down):  1.340E-03 0.000E+00

     add environment contribution to local potential

     total cpu time spent up to now is      156.6 secs

     total energy              =    -343.09620182 Ry
     Harris-Foulkes estimate   =    -342.80888281 Ry
     estimated scf accuracy    <       0.00000130 Ry
     electrostatic embedding   =      -0.09910505 Ry
     cavitation energy         =       0.05892806 Ry
     PV energy                 =      -0.05224278 Ry
     correction to one-el term =      -0.19489892 Ry

     iteration # 20     ecut=    35.00 Ry     beta=0.30
     Davidson diagonalization with overlap
     ethr =  1.63E-09,  avg # of iterations =  4.0

     negative rho (up, down):  1.311E-03 0.000E+00

     add environment contribution to local potential

     total cpu time spent up to now is      165.3 secs

     total energy              =    -343.09617885 Ry
     Harris-Foulkes estimate   =    -342.80875108 Ry
     estimated scf accuracy    <       0.00000020 Ry
     electrostatic embedding   =      -0.09946054 Ry
     cavitation energy         =       0.05896203 Ry
     PV energy                 =      -0.05232557 Ry
     correction to one-el term =      -0.19460369 Ry

     iteration # 21     ecut=    35.00 Ry     beta=0.30
     Davidson diagonalization with overlap
     ethr =  2.50E-10,  avg # of iterations =  4.0

     negative rho (up, down):  1.303E-03 0.000E+00

     add environment contribution to local potential

     total cpu time spent up to now is      173.8 secs

     total energy              =    -343.09617714 Ry
     Harris-Foulkes estimate   =    -342.80693463 Ry
     estimated scf accuracy    <       0.00000008 Ry
     electrostatic embedding   =      -0.09938621 Ry
     cavitation energy         =       0.05896599 Ry
     PV energy                 =      -0.05233565 Ry
     correction to one-el term =      -0.19648672 Ry

     iteration # 22     ecut=    35.00 Ry     beta=0.30
     Davidson diagonalization with overlap
     ethr =  9.92E-11,  avg # of iterations =  3.0

     negative rho (up, down):  1.332E-03 0.000E+00

     add environment contribution to local potential

     total cpu time spent up to now is      182.9 secs

     total energy              =    -343.09618026 Ry
     Harris-Foulkes estimate   =    -342.80794226 Ry
     estimated scf accuracy    <       0.00000006 Ry
     electrostatic embedding   =      -0.09930999 Ry
     cavitation energy         =       0.05896181 Ry
     PV energy                 =      -0.05232607 Ry
     correction to one-el term =      -0.19556370 Ry

     iteration # 23     ecut=    35.00 Ry     beta=0.30
     Davidson diagonalization with overlap
     ethr =  7.45E-11,  avg # of iterations =  2.0

     negative rho (up, down):  1.355E-03 0.000E+00

     total cpu time spent up to now is      187.0 secs

     End of self-consistent calculation

          k = 0.0000 0.0000 0.0000 ( 64589 PWs)   bands (ev):

   -25.4407 -25.2435 -25.1880 -25.1525 -24.9910 -24.9109 -24.8104 -24.7466
   -24.5744 -24.5094 -13.1338 -13.0766 -13.0406 -12.8954 -12.8166 -12.7421
   -12.7053 -12.6476 -12.6294 -12.5660 -10.5467 -10.3857  -9.6976  -9.6062
    -9.4708  -9.3168  -8.8395  -8.7975  -8.7137  -8.1722  -7.4502  -7.3620
    -7.3329  -7.2889  -7.2356  -7.2115  -7.1911  -7.1829  -7.1343  -6.9950

     occupation numbers 
     1.0000   1.0000   1.0000   1.0000   1.0000   1.0000   1.0000   1.0000
     1.0000   1.0000   1.0000   1.0000   1.0000   1.0000   1.0000   1.0000
     1.0000   1.0000   1.0000   1.0000   1.0000   1.0000   1.0000   1.0000
     1.0000   1.0000   1.0000   1.0000   1.0000   1.0000   1.0000   1.0000
     1.0000   1.0000   1.0000   1.0000   1.0000   1.0000   1.0000   1.0000

     highest occupied level (ev):    -6.9950

!    total energy              =    -343.09617676 Ry
     Harris-Foulkes estimate   =    -342.80816716 Ry
     estimated scf accuracy    <          4.7E-09 Ry

     The total energy is the sum of the following terms:

     one-electron contribution =   -2464.09263252 Ry
     hartree contribution      =    1246.97909116 Ry
     xc contribution           =     -84.63852516 Ry
     ewald contribution        =     958.94389938 Ry
     electrostatic embedding   =      -0.09932253 Ry
     cavitation energy         =       0.05896718 Ry
     PV energy                 =      -0.05233724 Ry
     correction to one-el term =      -0.19531701 Ry

     convergence has been achieved in  23 iterations
     The global environment contribution to forces
     atom    1 type  2   force =     0.03589008    0.10476740   -0.08656771
     atom    2 type  1   force =     0.02203711    0.03581542   -0.03279110
     atom    3 type  1   force =     0.00515043    0.01371926   -0.01183427
     atom    4 type  2   force =    -0.04183631    0.04440939    0.06718520
     atom    5 type  1   force =    -0.00175056    0.01113785    0.00411204
     atom    6 type  1   force =    -0.00077882    0.00139183    0.00876903
     atom    7 type  2   force =    -0.03399435    0.11587268   -0.06907658
     atom    8 type  1   force =    -0.01865170    0.04616169   -0.02148575
     atom    9 type  1   force =     0.00431057    0.01589330   -0.00433722
     atom   10 type  2   force =    -0.02234876   -0.05800248   -0.09447810
     atom   11 type  1   force =    -0.01031852   -0.00496443   -0.00546307
     atom   12 type  1   force =    -0.01462915   -0.02831268   -0.04096467
     atom   13 type  2   force =     0.05632927   -0.09715009    0.02798473
     atom   14 type  1   force =     0.01208031   -0.00642185   -0.00109615
     atom   15 type  1   force =     0.02788701   -0.04169152    0.01706282
     atom   16 type  2   force =     0.02170974    0.06718268   -0.05403140
     atom   17 type  1   force =    -0.00174799    0.00949748   -0.00185946
     atom   18 type  1   force =     0.00014700    0.00397199   -0.01013225
     atom   19 type  2   force =    -0.04186226   -0.03662635   -0.10556646
     atom   20 type  1   force =    -0.00624127    0.00450459   -0.01634464
     atom   21 type  1   force =    -0.00687960   -0.00501197   -0.01350704
     atom   22 type  2   force =    -0.06980383    0.01812047    0.08067687
     atom   23 type  1   force =    -0.03076055    0.00442728    0.04099837
     atom   24 type  1   force =    -0.01289959   -0.00455456    0.00235709
     atom   25 type  2   force =     0.07615859   -0.00739856    0.02563552
     atom   26 type  1   force =     0.00796857   -0.00395234   -0.00182555
     atom   27 type  1   force =     0.00400211   -0.00087037    0.00595381
     atom   28 type  2   force =    -0.05934232   -0.04190380   -0.10401535
     atom   29 type  1   force =    -0.00408096   -0.00992156   -0.00970801
     atom   30 type  1   force =    -0.00385701    0.00051792   -0.01713306
 

     Forces acting on atoms (cartesian axes, Ry/au):

     atom    1 type  2   force =     0.00161606   -0.02234389    0.01663575
     atom    2 type  1   force =     0.01541003    0.01073334   -0.01346966
     atom    3 type  1   force =    -0.02155926    0.00681144    0.00830421
     atom    4 type  2   force =    -0.00882505   -0.01355707   -0.01431919
     atom    5 type  1   force =     0.00223559    0.02943334   -0.00030397
     atom    6 type  1   force =     0.00589627   -0.01376405    0.02331639
     atom    7 type  2   force =     0.01649498    0.00325319    0.01188507
     atom    8 type  1   force =    -0.00379180    0.02373897   -0.00596324
     atom    9 type  1   force =    -0.00579938   -0.01172092    0.00207623
     atom   10 type  2   force =    -0.00504159    0.00946322    0.02536982
     atom   11 type  1   force =     0.01702107    0.00322774    0.00149133
     atom   12 type  1   force =    -0.01079358   -0.01409306   -0.01544122
     atom   13 type  2   force =    -0.00063871    0.01956093   -0.01230280
     atom   14 type  1   force =    -0.01739704    0.00030417   -0.00014613
     atom   15 type  1   force =     0.01668804   -0.01688234    0.00590146
     atom   16 type  2   force =     0.01296625   -0.02423665    0.00692882
     atom   17 type  1   force =    -0.00949228    0.02117525    0.01373326
     atom   18 type  1   force =    -0.00415654   -0.00074845   -0.02657732
     atom   19 type  2   force =    -0.00733384    0.00199153    0.01607817
     atom   20 type  1   force =    -0.00999298    0.01315112   -0.02458923
     atom   21 type  1   force =     0.01994048   -0.01307639   -0.00513952
     atom   22 type  2   force =     0.00493438   -0.01163634   -0.02588849
     atom   23 type  1   force =    -0.01633402   -0.00226662    0.01678590
     atom   24 type  1   force =     0.01075073    0.00988044   -0.00276107
     atom   25 type  2   force =    -0.01712214    0.01977192   -0.00709782
     atom   26 type  1   force =     0.00979613   -0.02183300   -0.01379076
     atom   27 type  1   force =    -0.00039634   -0.00299900    0.02561723
     atom   28 type  2   force =     0.01034274    0.01312108    0.01906512
     atom   29 type  1   force =    -0.00342962   -0.02938141    0.00051700
     atom   30 type  1   force =    -0.00198858    0.01292152   -0.02591535
     The Martyna-Tuckerman correction term to forces
     atom    1 type  2   force =    -0.00028933   -0.00122622    0.00421979
     atom    2 type  1   force =     0.00000421   -0.00009486    0.00080257
     atom    3 type  1   force =    -0.00001000   -0.00017951    0.00064850
     atom    4 type  2   force =    -0.00092064   -0.00388501    0.00299457
     atom    5 type  1   force =    -0.00013380   -0.00049460    0.00059863
     atom    6 type  1   force =    -0.00016120   -0.00058561    0.00037260
     atom    7 type  2   force =     0.00049643   -0.00043441    0.00260303
     atom    8 type  1   force =     0.00005685    0.00221199    0.00038651
     atom    9 type  1   force =     0.00007405   -0.00026487    0.00035390
     atom   10 type  2   force =    -0.00006703   -0.00456903    0.00176086
     atom   11 type  1   force =    -0.00009467   -0.00072482    0.00038945
     atom   12 type  1   force =    -0.00002291   -0.00095766    0.00032516
     atom   13 type  2   force =    -0.00087321   -0.00197014    0.00128046
     atom   14 type  1   force =    -0.00011979   -0.00039661    0.00014342
     atom   15 type  1   force =    -0.00015145   -0.00056916    0.00006808
     atom   16 type  2   force =     0.00001417   -0.00363425    0.00044302
     atom   17 type  1   force =     0.00011758   -0.00039699    0.00021735
     atom   18 type  1   force =     0.00002918   -0.00077879    0.00008367
     atom   19 type  2   force =     0.00172161   -0.00092412    0.00376186
     atom   20 type  1   force =     0.00027623   -0.00016580    0.00055147
     atom   21 type  1   force =     0.00018397   -0.00009747    0.00063258
     atom   22 type  2   force =     0.00216901   -0.00194002    0.00231534
     atom   23 type  1   force =     0.00043927   -0.00031700    0.00052663
     atom   24 type  1   force =     0.00032201   -0.00023785    0.00048346
     atom   25 type  2   force =     0.00059100   -0.00219633    0.00117933
     atom   26 type  1   force =     0.00006839   -0.00047114    0.00023972
     atom   27 type  1   force =     0.00021937   -0.00038729    0.00020739
     atom   28 type  2   force =     0.00038753   -0.00036133    0.00378090
     atom   29 type  1   force =    -0.00000471   -0.00012452    0.00051914
     atom   30 type  1   force =     0.00002964   -0.00011386    0.00063952
     The non-local contrib.  to forces
     atom    1 type  2   force =    -0.49554810    1.72888241   -0.79191490
     atom    2 type  1   force =    -0.11023307   -0.12493907    0.12894941
     atom    3 type  1   force =     0.16695873   -0.08324744   -0.03611576
     atom    4 type  2   force =     0.77000904    1.06763195    1.52391484
     atom    5 type  1   force =    -0.03502082   -0.19453703   -0.00129929
     atom    6 type  1   force =    -0.07366953    0.07195899   -0.16749710
     atom    7 type  2   force =    -1.73215020    0.26123766   -0.75400553
     atom    8 type  1   force =     0.09560424   -0.17152612    0.07557988
     atom    9 type  1   force =     0.11446543    0.13308161    0.00916693
     atom   10 type  2   force =     0.94581040   -0.54319590   -1.58336308
     atom   11 type  1   force =    -0.17175792   -0.04622911    0.02550672
     atom   12 type  1   force =     0.06172757    0.11616846    0.16411551
     atom   13 type  2   force =    -0.51303771   -1.59302675    0.92123463
     atom   14 type  1   force =     0.17327036    0.03367084   -0.03536028
     atom   15 type  1   force =    -0.11504787    0.15914881   -0.07586451
     atom   16 type  2   force =    -1.16626487    1.40131005   -0.85390942
     atom   17 type  1   force =     0.08957475   -0.14678302   -0.09357550
     atom   18 type  1   force =     0.06350266   -0.00597611    0.18796981
     atom   19 type  2   force =     1.01977938    0.12884394   -1.71845053
     atom   20 type  1   force =     0.04257971   -0.10449928    0.16551199
     atom   21 type  1   force =    -0.17290817    0.07150114    0.02816422
     atom   22 type  2   force =     0.13585007    1.13988267    1.51136625
     atom   23 type  1   force =     0.11811791   -0.01698163   -0.17306144
     atom   24 type  1   force =    -0.12893056   -0.11928719   -0.01040255
     atom   25 type  2   force =     0.62423778   -1.70250918    0.82098605
     atom   26 type  1   force =    -0.06291767    0.15840444    0.09639400
     atom   27 type  1   force =     0.01035316    0.05034853   -0.18988564
     atom   28 type  2   force =    -0.21091939   -1.09794885   -1.74079662
     atom   29 type  1   force =     0.01143606    0.19688454    0.01190503
     atom   30 type  1   force =    -0.00285601   -0.06843749    0.18834542
     The ionic contribution  to forces
     atom    1 type  2   force =     7.24718483    2.67208825   -5.06390518
     atom    2 type  1   force =     2.84779393    3.02416018   -3.19317273
     atom    3 type  1   force =    -1.81016088    2.41437458   -0.59179096
     atom    4 type  2   force =     4.16573925   -5.77127171  -11.21150010
     atom    5 type  1   force =     1.40414550    2.69261338   -1.48415994
     atom    6 type  1   force =     2.36070823   -2.01113440    1.50489804
     atom    7 type  2   force =     0.31175649    9.33595589   -2.17971166
     atom    8 type  1   force =    -2.14377830    4.38359106   -1.85732030
     atom    9 type  1   force =    -2.41386462   -0.66208245   -0.94575692
     atom   10 type  2   force =    -7.07407855   -5.23773180   -4.65852093
     atom   11 type  1   force =     2.06454231   -0.13291543   -1.82435414
     atom   12 type  1   force =    -1.81267451   -2.93186221   -3.97281453
     atom   13 type  2   force =     8.39646919   -4.35624392    1.91861996
     atom   14 type  1   force =    -1.72417939   -1.79128036    1.38211696
     atom   15 type  1   force =     3.05714210   -3.84463420    1.83744117
     atom   16 type  2   force =    -1.25990574  -11.64665531    6.28981770
     atom   17 type  1   force =    -1.97319499    0.93721917    2.52831285
     atom   18 type  1   force =    -1.78215979   -1.59265960   -2.61337054
     atom   19 type  2   force =    -1.45932492    6.84772702   11.49026204
     atom   20 type  1   force =    -0.77388093    3.22690555   -1.53662791
     atom   21 type  1   force =     3.01854295   -0.18155102    1.08729581
     atom   22 type  2   force =    -7.56692707   -2.91924816    5.56078263
     atom   23 type  1   force =    -3.11581939    0.22036089    4.23268549
     atom   24 type  1   force =     1.11704448    1.83796570    1.67151392
     atom   25 type  2   force =   -11.01305015    4.95299126   -5.35365925
     atom   26 type  1   force =    -0.53780767   -2.27092661   -2.44797891
     atom   27 type  1   force =    -2.00660289   -0.55563559    2.78410999
     atom   28 type  2   force =     9.44432444    4.58933196    8.37203588
     atom   29 type  1   force =     1.30632081   -2.94809898    0.81158917
     atom   30 type  1   force =     1.72569529    1.71864687   -2.53683763
     The local contribution  to forces
     atom    1 type  2   force =    -6.78591391   -4.52621383    5.95463869
     atom    2 type  1   force =    -2.74450522   -2.92358227    3.08259658
     atom    3 type  1   force =     1.61618873   -2.33722850    0.64725097
     atom    4 type  2   force =    -4.90212115    4.65018268    9.60294102
     atom    5 type  1   force =    -1.36531704   -2.47866153    1.48029927
     atom    6 type  1   force =    -2.28051446    1.92522686   -1.32336917
     atom    7 type  2   force =     1.47006292   -9.70874248    3.01192920
     atom    8 type  1   force =     2.06266099   -4.23607233    1.79673207
     atom    9 type  1   force =     2.28889805    0.50227703    0.94250508
     atom   10 type  2   force =     6.14531256    5.85356574    6.35980780
     atom   11 type  1   force =    -1.86566513    0.18868281    1.80526628
     atom   12 type  1   force =     1.75448934    2.83149219    3.83375139
     atom   13 type  2   force =    -7.93982775    6.06856040   -2.88155860
     atom   14 type  1   force =     1.52123719    1.76535249   -1.34609158
     atom   15 type  1   force =    -2.95345508    3.71148490   -1.77294802
     atom   16 type  2   force =     2.41708749   10.15817463   -5.37552971
     atom   17 type  1   force =     1.87544201   -0.77774114   -2.41950343
     atom   18 type  1   force =     1.71400820    1.59531439    2.40872996
     atom   19 type  2   force =     0.47204020   -6.93639424   -9.65406721
     atom   20 type  1   force =     0.72695802   -3.11296726    1.36217706
     atom   21 type  1   force =    -2.81931231    0.10270819   -1.10786643
     atom   22 type  2   force =     7.50330839    1.75217093   -7.18114452
     atom   23 type  1   force =     3.01137162   -0.20913254   -4.08450300
     atom   24 type  1   force =    -0.96510233   -1.70338117   -1.66685252
     atom   25 type  2   force =    10.29461729   -3.22049552    4.49861401
     atom   26 type  1   force =     0.60216680    2.09573572    2.33923526
     atom   27 type  1   force =     1.99131377    0.50416921   -2.57491119
     atom   28 type  2   force =    -9.16441046   -3.43537275   -6.51207853
     atom   29 type  1   force =    -1.31741278    2.73250027   -0.81393081
     atom   30 type  1   force =    -1.72131214   -1.63706723    2.33892553
     The core correction contribution to forces
     atom    1 type  2   force =     0.00000000    0.00000000    0.00000000
     atom    2 type  1   force =     0.00000000    0.00000000    0.00000000
     atom    3 type  1   force =     0.00000000    0.00000000    0.00000000
     atom    4 type  2   force =     0.00000000    0.00000000    0.00000000
     atom    5 type  1   force =     0.00000000    0.00000000    0.00000000
     atom    6 type  1   force =     0.00000000    0.00000000    0.00000000
     atom    7 type  2   force =     0.00000000    0.00000000    0.00000000
     atom    8 type  1   force =     0.00000000    0.00000000    0.00000000
     atom    9 type  1   force =     0.00000000    0.00000000    0.00000000
     atom   10 type  2   force =     0.00000000    0.00000000    0.00000000
     atom   11 type  1   force =     0.00000000    0.00000000    0.00000000
     atom   12 type  1   force =     0.00000000    0.00000000    0.00000000
     atom   13 type  2   force =     0.00000000    0.00000000    0.00000000
     atom   14 type  1   force =     0.00000000    0.00000000    0.00000000
     atom   15 type  1   force =     0.00000000    0.00000000    0.00000000
     atom   16 type  2   force =     0.00000000    0.00000000    0.00000000
     atom   17 type  1   force =     0.00000000    0.00000000    0.00000000
     atom   18 type  1   force =     0.00000000    0.00000000    0.00000000
     atom   19 type  2   force =     0.00000000    0.00000000    0.00000000
     atom   20 type  1   force =     0.00000000    0.00000000    0.00000000
     atom   21 type  1   force =     0.00000000    0.00000000    0.00000000
     atom   22 type  2   force =     0.00000000    0.00000000    0.00000000
     atom   23 type  1   force =     0.00000000    0.00000000    0.00000000
     atom   24 type  1   force =     0.00000000    0.00000000    0.00000000
     atom   25 type  2   force =     0.00000000    0.00000000    0.00000000
     atom   26 type  1   force =     0.00000000    0.00000000    0.00000000
     atom   27 type  1   force =     0.00000000    0.00000000    0.00000000
     atom   28 type  2   force =     0.00000000    0.00000000    0.00000000
     atom   29 type  1   force =     0.00000000    0.00000000    0.00000000
     atom   30 type  1   force =     0.00000000    0.00000000    0.00000000
     The Hubbard contrib.    to forces
     atom    1 type  2   force =     0.00000000    0.00000000    0.00000000
     atom    2 type  1   force =     0.00000000    0.00000000    0.00000000
     atom    3 type  1   force =     0.00000000    0.00000000    0.00000000
     atom    4 type  2   force =     0.00000000    0.00000000    0.00000000
     atom    5 type  1   force =     0.00000000    0.00000000    0.00000000
     atom    6 type  1   force =     0.00000000    0.00000000    0.00000000
     atom    7 type  2   force =     0.00000000    0.00000000    0.00000000
     atom    8 type  1   force =     0.00000000    0.00000000    0.00000000
     atom    9 type  1   force =     0.00000000    0.00000000    0.00000000
     atom   10 type  2   force =     0.00000000    0.00000000    0.00000000
     atom   11 type  1   force =     0.00000000    0.00000000    0.00000000
     atom   12 type  1   force =     0.00000000    0.00000000    0.00000000
     atom   13 type  2   force =     0.00000000    0.00000000    0.00000000
     atom   14 type  1   force =     0.00000000    0.00000000    0.00000000
     atom   15 type  1   force =     0.00000000    0.00000000    0.00000000
     atom   16 type  2   force =     0.00000000    0.00000000    0.00000000
     atom   17 type  1   force =     0.00000000    0.00000000    0.00000000
     atom   18 type  1   force =     0.00000000    0.00000000    0.00000000
     atom   19 type  2   force =     0.00000000    0.00000000    0.00000000
     atom   20 type  1   force =     0.00000000    0.00000000    0.00000000
     atom   21 type  1   force =     0.00000000    0.00000000    0.00000000
     atom   22 type  2   force =     0.00000000    0.00000000    0.00000000
     atom   23 type  1   force =     0.00000000    0.00000000    0.00000000
     atom   24 type  1   force =     0.00000000    0.00000000    0.00000000
     atom   25 type  2   force =     0.00000000    0.00000000    0.00000000
     atom   26 type  1   force =     0.00000000    0.00000000    0.00000000
     atom   27 type  1   force =     0.00000000    0.00000000    0.00000000
     atom   28 type  2   force =     0.00000000    0.00000000    0.00000000
     atom   29 type  1   force =     0.00000000    0.00000000    0.00000000
     atom   30 type  1   force =     0.00000000    0.00000000    0.00000000
     The SCF correction term to forces
     atom    1 type  2   force =    -0.00002229   -0.00001837    0.00002197
     atom    2 type  1   force =    -0.00000171   -0.00000254    0.00000252
     atom    3 type  1   force =    -0.00000104   -0.00000344    0.00000264
     atom    4 type  2   force =    -0.00001001   -0.00000086    0.00000219
     atom    5 type  1   force =    -0.00000247   -0.00000122    0.00000223
     atom    6 type  1   force =    -0.00000273    0.00000179   -0.00000010
     atom    7 type  2   force =     0.00000891   -0.00001264    0.00000352
     atom    8 type  1   force =     0.00000133   -0.00000380    0.00000126
     atom    9 type  1   force =     0.00000235   -0.00000203    0.00000137
     atom   10 type  2   force =     0.00001501    0.00002021    0.00002018
     atom   11 type  1   force =     0.00000023    0.00000223    0.00000299
     atom   12 type  1   force =     0.00000131    0.00000235    0.00000284
     atom   13 type  2   force =    -0.00001328    0.00001495   -0.00000708
     atom   14 type  1   force =    -0.00000050    0.00000317   -0.00000159
     atom   15 type  1   force =    -0.00000144    0.00000234   -0.00000116
     atom   16 type  2   force =     0.00001069    0.00000907   -0.00000446
     atom   17 type  1   force =     0.00000158    0.00000327   -0.00000164
     atom   18 type  1   force =     0.00000143    0.00000319   -0.00000107
     atom   19 type  2   force =    -0.00000264   -0.00001120   -0.00000462
     atom   20 type  1   force =     0.00000048   -0.00000317   -0.00000027
     atom   21 type  1   force =    -0.00000113   -0.00000174   -0.00000175
     atom   22 type  2   force =     0.00002302    0.00000130   -0.00002815
     atom   23 type  1   force =     0.00000235   -0.00000011   -0.00000323
     atom   24 type  1   force =     0.00000194   -0.00000098   -0.00000358
     atom   25 type  2   force =     0.00000857    0.00000377    0.00000343
     atom   26 type  1   force =     0.00000294    0.00000044    0.00000162
     atom   27 type  1   force =     0.00000337    0.00000003   -0.00000021
     atom   28 type  2   force =    -0.00001183   -0.00000064   -0.00000425
     atom   29 type  1   force =    -0.00000283    0.00000235   -0.00000061
     atom   30 type  1   force =    -0.00000314   -0.00000118    0.00000178

     Total force =     0.135767     Total SCF correction =     0.000073

     Writing output data file H2OCluster_fill_pockets.save
 
     init_run     :      4.92s CPU      5.07s WALL (       1 calls)
     electrons    :    177.84s CPU    182.05s WALL (       1 calls)
     forces       :      1.72s CPU      1.86s WALL (       1 calls)

     Called by init_run:
     wfcinit      :      0.42s CPU      0.42s WALL (       1 calls)
     wfcinit:atom :      0.00s CPU      0.01s WALL (       1 calls)
     wfcinit:wfcr :      0.39s CPU      0.39s WALL (       1 calls)
     potinit      :      2.83s CPU      2.87s WALL (       1 calls)

     Called by electrons:
     c_bands      :     23.08s CPU     23.23s WALL (      23 calls)
     sum_band     :     12.79s CPU     13.75s WALL (      23 calls)
     v_of_rho     :      6.96s CPU      7.08s WALL (      24 calls)
     v_h          :     31.59s CPU     32.10s WALL (     967 calls)
     v_xc         :      6.19s CPU      6.32s WALL (      24 calls)
     newd         :      5.65s CPU      6.55s WALL (      24 calls)
     mix_rho      :      1.66s CPU      1.67s WALL (      23 calls)

     Called by c_bands:
     init_us_2    :      0.31s CPU      0.31s WALL (      47 calls)
     cegterg      :     22.28s CPU     22.42s WALL (      23 calls)

     Called by sum_band:
     sum_band:bec :      0.00s CPU      0.00s WALL (      23 calls)
     addusdens    :      7.60s CPU      8.52s WALL (      23 calls)

     Called by *egterg:
     h_psi        :     17.34s CPU     17.39s WALL (      89 calls)
     s_psi        :      1.22s CPU      1.24s WALL (      89 calls)
     g_psi        :      0.09s CPU      0.11s WALL (      65 calls)
     cdiaghg      :      0.30s CPU      0.31s WALL (      88 calls)
     cegterg:over :      1.22s CPU      1.22s WALL (      65 calls)
     cegterg:upda :      1.22s CPU      1.20s WALL (      65 calls)
     cegterg:last :      0.52s CPU      0.52s WALL (      25 calls)

     Called by h_psi:
     h_psi:pot    :     17.12s CPU     17.19s WALL (      89 calls)
     h_psi:calbec :      1.03s CPU      1.07s WALL (      89 calls)
     vloc_psi     :     14.82s CPU     14.85s WALL (      89 calls)
     add_vuspsi   :      1.26s CPU      1.26s WALL (      89 calls)

     General routines
     calbec       :      1.40s CPU      1.43s WALL (     116 calls)
     fft          :     70.82s CPU     71.88s WALL (    3717 calls)
     ffts         :      0.20s CPU      0.21s WALL (      47 calls)
     fftw         :     12.63s CPU     12.62s WALL (    6834 calls)
     interpolate  :      1.27s CPU      1.28s WALL (      47 calls)
     davcio       :      0.00s CPU      0.00s WALL (       1 calls)
 
     Parallel routines
     fft_scatter  :     45.41s CPU     46.21s WALL (   10598 calls)
 
     Environ routines
     calc_eelect  :      0.03s CPU      0.04s WALL (      46 calls)
     calc_velect  :     70.76s CPU     71.90s WALL (      36 calls)
     dielectric   :      0.81s CPU      0.81s WALL (      25 calls)
     calc_felect  :      0.40s CPU      0.40s WALL (       1 calls)
 
     PWSCF        :  3m 4.80s CPU     3m 9.35s WALL

 
   This run was terminated on:  16:52: 0  29Jan2018            

=------------------------------------------------------------------------------=
   JOB DONE.
=------------------------------------------------------------------------------=
