
     Program PWSCF v.6.1 (svn rev. 13369) starts on 29Jan2018 at 16:46:20 

     This program is part of the open-source Quantum ESPRESSO suite
     for quantum simulation of materials; please cite
         "P. Giannozzi et al., J. Phys.:Condens. Matter 21 395502 (2009);
          URL http://www.quantum-espresso.org", 
     in publications or presentations arising from this work. More details at
     http://www.quantum-espresso.org/quote

     Parallel version (MPI), running on     8 processors
     R & G space division:  proc/nbgrp/npool/nimage =       8
     Waiting for input...
     Reading input from standard input

     Current dimensions of program PWSCF are:
     Max number of different atomic species (ntypx) = 10
     Max number of k-points (npk) =  40000
     Max angular momentum in pseudopotentials (lmaxx) =  3
               file H.pbe-rrkjus.UPF: wavefunction(s)  1S renormalized
               file O.pbe-rrkjus.UPF: wavefunction(s)  2S renormalized

     Subspace diagonalization in iterative solution of the eigenvalue problem:
     a serial algorithm will be used

 
     Parallelization info
     --------------------
     sticks:   dense  smooth     PW     G-vecs:    dense   smooth      PW
     Min        1950     975    242               183178    64767    8072
     Max        1952     977    243               183179    64769    8075
     Sum       15613    7809   1941              1465425   518139   64589
 


     bravais-lattice index     =            0
     lattice parameter (alat)  =      26.4562  a.u.
     unit-cell volume          =   18517.4301 (a.u.)^3
     number of atoms/cell      =           30
     number of atomic types    =            2
     number of electrons       =        80.00
     number of Kohn-Sham states=           40
     kinetic-energy cutoff     =      35.0000  Ry
     charge density cutoff     =     280.0000  Ry
     convergence threshold     =      2.0E-08
     mixing beta               =       0.3000
     number of iterations used =            8  plain     mixing
     Exchange-correlation      =  SLA  PW   PBE  PBE ( 1  4  3  4 0 0)
 

     Environ Module
     ==============

     Plese cite
         O. Andreussi, I. Dabo and N. Marzari, J. Chem. Phys. 136, 064102 (2012)         
     in publications or presentations arising from this work.

     compensation onset threshold      =               0.1000E+01 
     static permittivity               =                    78.30 
     epsilon calculation mode          =               electronic 
     surface tension in input (dyn/cm) =                    50.00 
     surface tension in internal units =               0.6423E-04 
     external pressure in input (GPa)  =                    -0.35 
     external pressure in inter. units =              -0.2379E-04 

     Electrostatic Setup
     -------------------
     electrostatic problem to solve    = generalized              
     numerical solver adopted          = cg                       
     type of auxiliary density adopted = none                     
     type of core tool for poisson     = fft                      
     type of core tool for s(r) deriv  = analytic                 


     Assuming isolated system, Martyna-Tuckerman method


     celldm(1)=  26.456166  celldm(2)=   0.000000  celldm(3)=   0.000000
     celldm(4)=   0.000000  celldm(5)=   0.000000  celldm(6)=   0.000000

     crystal axes: (cart. coord. in units of alat)
               a(1) = (   1.000000   0.000000   0.000000 )  
               a(2) = (   0.000000   1.000000   0.000000 )  
               a(3) = (   0.000000   0.000000   1.000000 )  

     reciprocal axes: (cart. coord. in units 2 pi/alat)
               b(1) = (  1.000000  0.000000  0.000000 )  
               b(2) = (  0.000000  1.000000  0.000000 )  
               b(3) = (  0.000000  0.000000  1.000000 )  


     PseudoPot. # 1 for H  read from file:
     /home/fnattino/Programs/qe-6.1/pseudo/H.pbe-rrkjus.UPF
     MD5 check sum: 7cc9d459525c9a0585f487a71c3c9563
     Pseudo is Ultrasoft, Zval =  1.0
     Generated by new atomic code, or converted to UPF format
     Using radial grid of 1061 points,  2 beta functions with: 
                l(1) =   0
                l(2) =   0
     Q(r) pseudized with 0 coefficients 


     PseudoPot. # 2 for O  read from file:
     /home/fnattino/Programs/qe-6.1/pseudo/O.pbe-rrkjus.UPF
     MD5 check sum: 390ba29e75625707450f3bd3f0eb6be9
     Pseudo is Ultrasoft, Zval =  6.0
     Generated by new atomic code, or converted to UPF format
     Using radial grid of 1269 points,  4 beta functions with: 
                l(1) =   0
                l(2) =   0
                l(3) =   1
                l(4) =   1
     Q(r) pseudized with 0 coefficients 


     atomic species   valence    mass     pseudopotential
        H              1.00     1.00794     H ( 1.00)
        O              6.00    15.99940     O ( 1.00)

     No symmetry found


                                    s                        frac. trans.

      isym =  1     identity                                     

 cryst.   s( 1) = (     1          0          0      )
                  (     0          1          0      )
                  (     0          0          1      )

 cart.    s( 1) = (  1.0000000  0.0000000  0.0000000 )
                  (  0.0000000  1.0000000  0.0000000 )
                  (  0.0000000  0.0000000  1.0000000 )


   Cartesian axes

     site n.     atom                  positions (alat units)
         1           O   tau(   1) = (   0.6957700   0.6855114   0.4644188  )
         2           H   tau(   2) = (   0.7306486   0.7273686   0.4222045  )
         3           H   tau(   3) = (   0.6343129   0.7176614   0.4766545  )
         4           O   tau(   4) = (   0.6657129   0.4864757   0.4344760  )
         5           H   tau(   5) = (   0.6785629   0.5550186   0.4363974  )
         6           H   tau(   6) = (   0.6921843   0.4624329   0.4944974  )
         7           O   tau(   7) = (   0.5221557   0.7567686   0.5198402  )
         8           H   tau(   8) = (   0.4897343   0.8122043   0.4947402  )
         9           H   tau(   9) = (   0.4745771   0.7035614   0.5154760  )
        10           O   tau(  10) = (   0.4803486   0.4447186   0.4503402  )
        11           H   tau(  11) = (   0.5483914   0.4622257   0.4388545  )
        12           H   tau(  12) = (   0.4614343   0.4068186   0.3959688  )
        13           O   tau(  13) = (   0.7065986   0.4282186   0.6234688  )
        14           H   tau(  14) = (   0.6385200   0.4135114   0.6381188  )
        15           H   tau(  15) = (   0.7430771   0.3754971   0.6487474  )
        16           O   tau(  16) = (   0.5196843   0.3976686   0.6452045  )
        17           H   tau(  17) = (   0.4871771   0.4506186   0.6772760  )
        18           H   tau(  18) = (   0.4966557   0.4010971   0.5794974  )
        19           O   tau(  19) = (   0.5641700   0.7000971   0.7160760  )
        20           H   tau(  20) = (   0.5505343   0.7358757   0.6580117  )
        21           H   tau(  21) = (   0.6284843   0.6739471   0.7040474  )
        22           O   tau(  22) = (   0.4318486   0.5647900   0.7140545  )
        23           H   tau(  23) = (   0.3939557   0.5713900   0.7712474  )
        24           H   tau(  24) = (   0.4836414   0.6137329   0.7196188  )
        25           O   tau(  25) = (   0.3983414   0.6136900   0.5211760  )
        26           H   tau(  26) = (   0.4211414   0.5564900   0.4880688  )
        27           H   tau(  27) = (   0.3953843   0.5944543   0.5882688  )
        28           O   tau(  28) = (   0.7377414   0.6260686   0.6592688  )
        29           H   tau(  29) = (   0.7335271   0.5566686   0.6534545  )
        30           H   tau(  30) = (   0.7385414   0.6482757   0.5933831  )

   Crystallographic axes

     site n.     atom                  positions (cryst. coord.)
         1           O   tau(   1) = (  0.6957700  0.6855114  0.4644188  )
         2           H   tau(   2) = (  0.7306486  0.7273686  0.4222045  )
         3           H   tau(   3) = (  0.6343129  0.7176614  0.4766545  )
         4           O   tau(   4) = (  0.6657129  0.4864757  0.4344760  )
         5           H   tau(   5) = (  0.6785629  0.5550186  0.4363974  )
         6           H   tau(   6) = (  0.6921843  0.4624329  0.4944974  )
         7           O   tau(   7) = (  0.5221557  0.7567686  0.5198402  )
         8           H   tau(   8) = (  0.4897343  0.8122043  0.4947402  )
         9           H   tau(   9) = (  0.4745771  0.7035614  0.5154760  )
        10           O   tau(  10) = (  0.4803486  0.4447186  0.4503402  )
        11           H   tau(  11) = (  0.5483914  0.4622257  0.4388545  )
        12           H   tau(  12) = (  0.4614343  0.4068186  0.3959688  )
        13           O   tau(  13) = (  0.7065986  0.4282186  0.6234688  )
        14           H   tau(  14) = (  0.6385200  0.4135114  0.6381188  )
        15           H   tau(  15) = (  0.7430771  0.3754971  0.6487474  )
        16           O   tau(  16) = (  0.5196843  0.3976686  0.6452045  )
        17           H   tau(  17) = (  0.4871771  0.4506186  0.6772760  )
        18           H   tau(  18) = (  0.4966557  0.4010971  0.5794974  )
        19           O   tau(  19) = (  0.5641700  0.7000971  0.7160760  )
        20           H   tau(  20) = (  0.5505343  0.7358757  0.6580117  )
        21           H   tau(  21) = (  0.6284843  0.6739471  0.7040474  )
        22           O   tau(  22) = (  0.4318486  0.5647900  0.7140545  )
        23           H   tau(  23) = (  0.3939557  0.5713900  0.7712474  )
        24           H   tau(  24) = (  0.4836414  0.6137329  0.7196188  )
        25           O   tau(  25) = (  0.3983414  0.6136900  0.5211760  )
        26           H   tau(  26) = (  0.4211414  0.5564900  0.4880688  )
        27           H   tau(  27) = (  0.3953843  0.5944543  0.5882688  )
        28           O   tau(  28) = (  0.7377414  0.6260686  0.6592688  )
        29           H   tau(  29) = (  0.7335271  0.5566686  0.6534545  )
        30           H   tau(  30) = (  0.7385414  0.6482757  0.5933831  )

     number of k points=     1
                       cart. coord. in units 2pi/alat
        k(    1) = (   0.0000000   0.0000000   0.0000000), wk =   2.0000000

                       cryst. coord.
        k(    1) = (   0.0000000   0.0000000   0.0000000), wk =   2.0000000

     Dense  grid:  1465425 G-vectors     FFT dimensions: ( 144, 144, 144)

     Smooth grid:   518139 G-vectors     FFT dimensions: ( 100, 100, 100)

     Estimated max dynamical RAM per process >     161.02MB

     Estimated total allocated dynamical RAM >    1288.17MB

     Initial potential from superposition of free atoms
     Check: negative starting charge=   -0.001447

     starting charge   78.07590, renormalised to   80.00000

     negative rho (up, down):  1.482E-03 0.000E+00
     Starting wfc are   60 randomized atomic wfcs

     total cpu time spent up to now is        3.5 secs

     per-process dynamical memory:   206.8 Mb

     Self-consistent Calculation

     iteration #  1     ecut=    35.00 Ry     beta=0.30
     Davidson diagonalization with overlap
     ethr =  1.00E-02,  avg # of iterations =  3.0

     negative rho (up, down):  9.578E-04 0.000E+00

     total cpu time spent up to now is        6.3 secs

     total energy              =    -343.60217679 Ry
     Harris-Foulkes estimate   =    -346.13522202 Ry
     estimated scf accuracy    <       5.96628147 Ry
     electrostatic embedding   =       0.00000000 Ry
     cavitation energy         =       0.11083026 Ry
     PV energy                 =      -0.15356752 Ry
     correction to one-el term =       0.00000000 Ry

     iteration #  2     ecut=    35.00 Ry     beta=0.30
     Davidson diagonalization with overlap
     ethr =  7.46E-03,  avg # of iterations =  1.0

     negative rho (up, down):  1.436E-03 0.000E+00

     total cpu time spent up to now is        8.6 secs

     total energy              =    -342.27032697 Ry
     Harris-Foulkes estimate   =    -343.81567437 Ry
     estimated scf accuracy    <       2.17119020 Ry
     electrostatic embedding   =       0.00000000 Ry
     cavitation energy         =       0.09639637 Ry
     PV energy                 =      -0.12638792 Ry
     correction to one-el term =       0.00000000 Ry

     iteration #  3     ecut=    35.00 Ry     beta=0.30
     Davidson diagonalization with overlap
     ethr =  2.71E-03,  avg # of iterations =  3.0

     negative rho (up, down):  1.852E-03 0.000E+00

     total cpu time spent up to now is       11.5 secs

     total energy              =    -343.17218812 Ry
     Harris-Foulkes estimate   =    -343.34610446 Ry
     estimated scf accuracy    <       1.18035499 Ry
     electrostatic embedding   =       0.00000000 Ry
     cavitation energy         =       0.06411113 Ry
     PV energy                 =      -0.06524093 Ry
     correction to one-el term =       0.00000000 Ry

     iteration #  4     ecut=    35.00 Ry     beta=0.30
     Davidson diagonalization with overlap
     ethr =  1.48E-03,  avg # of iterations =  1.0

     negative rho (up, down):  1.827E-03 0.000E+00

     add environment contribution to local potential

     total cpu time spent up to now is       17.7 secs

     total energy              =    -342.64276402 Ry
     Harris-Foulkes estimate   =    -343.21028914 Ry
     estimated scf accuracy    <       0.82238194 Ry
     electrostatic embedding   =       0.00000000 Ry
     cavitation energy         =       0.06592008 Ry
     PV energy                 =      -0.06862863 Ry
     correction to one-el term =       0.00000000 Ry

     iteration #  5     ecut=    35.00 Ry     beta=0.30
     Davidson diagonalization with overlap
     ethr =  1.03E-03,  avg # of iterations =  3.0

     negative rho (up, down):  1.543E-03 0.000E+00

     total cpu time spent up to now is       21.6 secs

     total energy              =    -342.95385960 Ry
     Harris-Foulkes estimate   =    -340.75287173 Ry
     estimated scf accuracy    <       1.23268868 Ry
     electrostatic embedding   =      -0.04361130 Ry
     cavitation energy         =       0.06300513 Ry
     PV energy                 =      -0.05909333 Ry
     correction to one-el term =      -2.69689419 Ry

     iteration #  6     ecut=    35.00 Ry     beta=0.30
     Davidson diagonalization with overlap
     ethr =  1.03E-03,  avg # of iterations =  2.0

     negative rho (up, down):  1.801E-03 0.000E+00

     add environment contribution to local potential

     total cpu time spent up to now is       28.6 secs

     total energy              =    -343.07398403 Ry
     Harris-Foulkes estimate   =    -340.34712859 Ry
     estimated scf accuracy    <       0.13560012 Ry
     electrostatic embedding   =      -0.04313098 Ry
     cavitation energy         =       0.06077799 Ry
     PV energy                 =      -0.05471779 Ry
     correction to one-el term =      -2.69171018 Ry

     iteration #  7     ecut=    35.00 Ry     beta=0.30
     Davidson diagonalization with overlap
     ethr =  1.70E-04,  avg # of iterations =  1.0

     negative rho (up, down):  1.475E-03 0.000E+00

     add environment contribution to local potential

     total cpu time spent up to now is       35.9 secs

     total energy              =    -343.04743029 Ry
     Harris-Foulkes estimate   =    -341.90038932 Ry
     estimated scf accuracy    <       0.13073430 Ry
     electrostatic embedding   =      -0.06204530 Ry
     cavitation energy         =       0.06043339 Ry
     PV energy                 =      -0.05390932 Ry
     correction to one-el term =      -1.15389650 Ry

     iteration #  8     ecut=    35.00 Ry     beta=0.30
     Davidson diagonalization with overlap
     ethr =  1.63E-04,  avg # of iterations =  3.0

     negative rho (up, down):  9.644E-04 0.000E+00

     add environment contribution to local potential

     total cpu time spent up to now is       43.3 secs

     total energy              =    -343.09733943 Ry
     Harris-Foulkes estimate   =    -342.48033787 Ry
     estimated scf accuracy    <       0.00291644 Ry
     electrostatic embedding   =      -0.08205482 Ry
     cavitation energy         =       0.05914613 Ry
     PV energy                 =      -0.05121069 Ry
     correction to one-el term =      -0.53827334 Ry

     iteration #  9     ecut=    35.00 Ry     beta=0.30
     Davidson diagonalization with overlap
     ethr =  3.65E-06,  avg # of iterations =  5.0

     negative rho (up, down):  2.447E-03 0.000E+00

     add environment contribution to local potential

     total cpu time spent up to now is       52.9 secs

     total energy              =    -343.10308436 Ry
     Harris-Foulkes estimate   =    -342.69950944 Ry
     estimated scf accuracy    <       0.03360553 Ry
     electrostatic embedding   =      -0.08715770 Ry
     cavitation energy         =       0.05870903 Ry
     PV energy                 =      -0.05008275 Ry
     correction to one-el term =      -0.32817799 Ry

     iteration # 10     ecut=    35.00 Ry     beta=0.30
     Davidson diagonalization with overlap
     ethr =  3.65E-06,  avg # of iterations =  2.0

     negative rho (up, down):  1.587E-03 0.000E+00

     add environment contribution to local potential

     total cpu time spent up to now is       61.3 secs

     total energy              =    -343.09937767 Ry
     Harris-Foulkes estimate   =    -343.06194888 Ry
     estimated scf accuracy    <       0.02421842 Ry
     electrostatic embedding   =      -0.09277302 Ry
     cavitation energy         =       0.05851207 Ry
     PV energy                 =      -0.04936783 Ry
     correction to one-el term =       0.04183299 Ry

     iteration # 11     ecut=    35.00 Ry     beta=0.30
     Davidson diagonalization with overlap
     ethr =  3.65E-06,  avg # of iterations =  3.0

     negative rho (up, down):  1.234E-03 0.000E+00

     add environment contribution to local potential

     total cpu time spent up to now is       68.8 secs

     total energy              =    -343.09721160 Ry
     Harris-Foulkes estimate   =    -343.10713687 Ry
     estimated scf accuracy    <       0.01101827 Ry
     electrostatic embedding   =      -0.09970536 Ry
     cavitation energy         =       0.05844127 Ry
     PV energy                 =      -0.04964996 Ry
     correction to one-el term =       0.09828785 Ry

     iteration # 12     ecut=    35.00 Ry     beta=0.30
     Davidson diagonalization with overlap
     ethr =  3.65E-06,  avg # of iterations =  3.0

     negative rho (up, down):  1.120E-03 0.000E+00

     add environment contribution to local potential

     total cpu time spent up to now is       76.0 secs

     total energy              =    -343.09645471 Ry
     Harris-Foulkes estimate   =    -343.05206983 Ry
     estimated scf accuracy    <       0.00509941 Ry
     electrostatic embedding   =      -0.09857363 Ry
     cavitation energy         =       0.05855363 Ry
     PV energy                 =      -0.04996323 Ry
     correction to one-el term =       0.04455334 Ry

     iteration # 13     ecut=    35.00 Ry     beta=0.30
     Davidson diagonalization with overlap
     ethr =  3.65E-06,  avg # of iterations =  3.0

     negative rho (up, down):  1.685E-03 0.000E+00

     add environment contribution to local potential

     total cpu time spent up to now is       83.7 secs

     total energy              =    -343.09603107 Ry
     Harris-Foulkes estimate   =    -343.02264460 Ry
     estimated scf accuracy    <       0.00216352 Ry
     electrostatic embedding   =      -0.09817419 Ry
     cavitation energy         =       0.05864223 Ry
     PV energy                 =      -0.05020751 Ry
     correction to one-el term =       0.01563870 Ry

     iteration # 14     ecut=    35.00 Ry     beta=0.30
     Davidson diagonalization with overlap
     ethr =  2.70E-06,  avg # of iterations =  3.0

     negative rho (up, down):  8.340E-04 0.000E+00

     add environment contribution to local potential

     total cpu time spent up to now is       90.7 secs

     total energy              =    -343.09617760 Ry
     Harris-Foulkes estimate   =    -342.97048874 Ry
     estimated scf accuracy    <       0.00048971 Ry
     electrostatic embedding   =      -0.09919219 Ry
     cavitation energy         =       0.05887601 Ry
     PV energy                 =      -0.05085001 Ry
     correction to one-el term =      -0.03456696 Ry

     iteration # 15     ecut=    35.00 Ry     beta=0.30
     Davidson diagonalization with overlap
     ethr =  6.12E-07,  avg # of iterations =  5.0

     negative rho (up, down):  7.554E-04 0.000E+00

     add environment contribution to local potential

     total cpu time spent up to now is       98.8 secs

     total energy              =    -343.09539273 Ry
     Harris-Foulkes estimate   =    -342.73493596 Ry
     estimated scf accuracy    <       0.00279172 Ry
     electrostatic embedding   =      -0.09672774 Ry
     cavitation energy         =       0.05941138 Ry
     PV energy                 =      -0.05224763 Ry
     correction to one-el term =      -0.27216170 Ry

     iteration # 16     ecut=    35.00 Ry     beta=0.30
     Davidson diagonalization with overlap
     ethr =  6.12E-07,  avg # of iterations =  3.0

     negative rho (up, down):  1.101E-03 0.000E+00

     add environment contribution to local potential

     total cpu time spent up to now is      107.2 secs

     total energy              =    -343.09577320 Ry
     Harris-Foulkes estimate   =    -342.68800117 Ry
     estimated scf accuracy    <       0.00012901 Ry
     electrostatic embedding   =      -0.09684431 Ry
     cavitation energy         =       0.05944969 Ry
     PV energy                 =      -0.05238876 Ry
     correction to one-el term =      -0.31800880 Ry

     iteration # 17     ecut=    35.00 Ry     beta=0.30
     Davidson diagonalization with overlap
     ethr =  1.61E-07,  avg # of iterations =  3.0

     negative rho (up, down):  1.172E-03 0.000E+00

     add environment contribution to local potential

     total cpu time spent up to now is      114.6 secs

     total energy              =    -343.09590435 Ry
     Harris-Foulkes estimate   =    -342.79914668 Ry
     estimated scf accuracy    <       0.00005196 Ry
     electrostatic embedding   =      -0.09878141 Ry
     cavitation energy         =       0.05930560 Ry
     PV energy                 =      -0.05203149 Ry
     correction to one-el term =      -0.20527092 Ry

     iteration # 18     ecut=    35.00 Ry     beta=0.30
     Davidson diagonalization with overlap
     ethr =  6.50E-08,  avg # of iterations =  3.0

     negative rho (up, down):  1.321E-03 0.000E+00

     add environment contribution to local potential

     total cpu time spent up to now is      122.0 secs

     total energy              =    -343.09590433 Ry
     Harris-Foulkes estimate   =    -342.80430216 Ry
     estimated scf accuracy    <       0.00000351 Ry
     electrostatic embedding   =      -0.09926285 Ry
     cavitation energy         =       0.05932989 Ry
     PV energy                 =      -0.05211203 Ry
     correction to one-el term =      -0.19955641 Ry

     iteration # 19     ecut=    35.00 Ry     beta=0.30
     Davidson diagonalization with overlap
     ethr =  4.38E-09,  avg # of iterations =  4.0

     negative rho (up, down):  1.258E-03 0.000E+00

     add environment contribution to local potential

     total cpu time spent up to now is      130.0 secs

     total energy              =    -343.09587073 Ry
     Harris-Foulkes estimate   =    -342.81262874 Ry
     estimated scf accuracy    <       0.00000067 Ry
     electrostatic embedding   =      -0.09983359 Ry
     cavitation energy         =       0.05937329 Ry
     PV energy                 =      -0.05223504 Ry
     correction to one-el term =      -0.19054668 Ry

     iteration # 20     ecut=    35.00 Ry     beta=0.30
     Davidson diagonalization with overlap
     ethr =  8.34E-10,  avg # of iterations =  4.0

     negative rho (up, down):  1.312E-03 0.000E+00

     add environment contribution to local potential

     total cpu time spent up to now is      137.3 secs

     total energy              =    -343.09586750 Ry
     Harris-Foulkes estimate   =    -342.80726877 Ry
     estimated scf accuracy    <       0.00000016 Ry
     electrostatic embedding   =      -0.09958840 Ry
     cavitation energy         =       0.05938457 Ry
     PV energy                 =      -0.05225886 Ry
     correction to one-el term =      -0.19613599 Ry

     iteration # 21     ecut=    35.00 Ry     beta=0.30
     Davidson diagonalization with overlap
     ethr =  1.95E-10,  avg # of iterations =  4.0

     negative rho (up, down):  1.337E-03 0.000E+00

     add environment contribution to local potential

     total cpu time spent up to now is      144.5 secs

     total energy              =    -343.09586923 Ry
     Harris-Foulkes estimate   =    -342.81094726 Ry
     estimated scf accuracy    <       0.00000007 Ry
     electrostatic embedding   =      -0.09951222 Ry
     cavitation energy         =       0.05938439 Ry
     PV energy                 =      -0.05225231 Ry
     correction to one-el term =      -0.19254179 Ry

     iteration # 22     ecut=    35.00 Ry     beta=0.30
     Davidson diagonalization with overlap
     ethr =  8.45E-11,  avg # of iterations =  2.0

     negative rho (up, down):  1.355E-03 0.000E+00

     total cpu time spent up to now is      147.3 secs

     End of self-consistent calculation

          k = 0.0000 0.0000 0.0000 ( 64589 PWs)   bands (ev):

   -25.4403 -25.2432 -25.1866 -25.1529 -24.9910 -24.9106 -24.8104 -24.7464
   -24.5746 -24.5093 -13.1323 -13.0743 -13.0396 -12.8935 -12.8151 -12.7428
   -12.7054 -12.6481 -12.6303 -12.5656 -10.5460 -10.3847  -9.6971  -9.6056
    -9.4703  -9.3168  -8.8393  -8.7977  -8.7131  -8.1726  -7.4487  -7.3604
    -7.3336  -7.2892  -7.2352  -7.2128  -7.1920  -7.1836  -7.1355  -6.9989

     occupation numbers 
     1.0000   1.0000   1.0000   1.0000   1.0000   1.0000   1.0000   1.0000
     1.0000   1.0000   1.0000   1.0000   1.0000   1.0000   1.0000   1.0000
     1.0000   1.0000   1.0000   1.0000   1.0000   1.0000   1.0000   1.0000
     1.0000   1.0000   1.0000   1.0000   1.0000   1.0000   1.0000   1.0000
     1.0000   1.0000   1.0000   1.0000   1.0000   1.0000   1.0000   1.0000

     highest occupied level (ev):    -6.9989

!    total energy              =    -343.09586697 Ry
     Harris-Foulkes estimate   =    -342.81057755 Ry
     estimated scf accuracy    <       0.00000001 Ry

     The total energy is the sum of the following terms:

     one-electron contribution =   -2464.09720053 Ry
     hartree contribution      =    1246.97913846 Ry
     xc contribution           =     -84.63641487 Ry
     ewald contribution        =     958.94389938 Ry
     electrostatic embedding   =      -0.09947032 Ry
     cavitation energy         =       0.05938878 Ry
     PV energy                 =      -0.05226047 Ry
     correction to one-el term =      -0.19294740 Ry

     convergence has been achieved in  22 iterations
     The global environment contribution to forces
     atom    1 type  2   force =     0.03484127    0.10429472   -0.08608913
     atom    2 type  1   force =     0.02197552    0.03575717   -0.03273464
     atom    3 type  1   force =     0.00492748    0.01337377   -0.01165081
     atom    4 type  2   force =    -0.04155432    0.04447665    0.06707213
     atom    5 type  1   force =    -0.00173655    0.01121708    0.00418804
     atom    6 type  1   force =    -0.00072542    0.00144666    0.00878262
     atom    7 type  2   force =    -0.03339082    0.11468809   -0.06923894
     atom    8 type  1   force =    -0.01860899    0.04607755   -0.02146831
     atom    9 type  1   force =     0.00454459    0.01580070   -0.00436910
     atom   10 type  2   force =    -0.02206935   -0.05732140   -0.09388635
     atom   11 type  1   force =    -0.01039850   -0.00484696   -0.00533910
     atom   12 type  1   force =    -0.01460602   -0.02826494   -0.04090877
     atom   13 type  2   force =     0.05662011   -0.09729415    0.02771986
     atom   14 type  1   force =     0.01216063   -0.00651588   -0.00111813
     atom   15 type  1   force =     0.02791302   -0.04171554    0.01705656
     atom   16 type  2   force =     0.02105948    0.06664302   -0.05404913
     atom   17 type  1   force =    -0.00189319    0.00952607   -0.00188251
     atom   18 type  1   force =     0.00005227    0.00401416   -0.01019749
     atom   19 type  2   force =    -0.04230016   -0.03532909   -0.10457699
     atom   20 type  1   force =    -0.00628149    0.00470266   -0.01637939
     atom   21 type  1   force =    -0.00676030   -0.00463113   -0.01318722
     atom   22 type  2   force =    -0.06968502    0.01798654    0.08023226
     atom   23 type  1   force =    -0.03075949    0.00442449    0.04097670
     atom   24 type  1   force =    -0.01299286   -0.00465470    0.00232310
     atom   25 type  2   force =     0.07599193   -0.00765292    0.02554552
     atom   26 type  1   force =     0.00805860   -0.00404749   -0.00178493
     atom   27 type  1   force =     0.00401633   -0.00096587    0.00595976
     atom   28 type  2   force =    -0.05754216   -0.04151976   -0.10393386
     atom   29 type  1   force =    -0.00380158   -0.01002714   -0.00976290
     atom   30 type  1   force =    -0.00370023    0.00055489   -0.01728641
 

     Forces acting on atoms (cartesian axes, Ry/au):

     atom    1 type  2   force =     0.00164903   -0.02229285    0.01661936
     atom    2 type  1   force =     0.01542701    0.01072542   -0.01347140
     atom    3 type  1   force =    -0.02164496    0.00662603    0.00839673
     atom    4 type  2   force =    -0.00894448   -0.01348529   -0.01418117
     atom    5 type  1   force =     0.00222017    0.02951222   -0.00024073
     atom    6 type  1   force =     0.00590094   -0.01373450    0.02336696
     atom    7 type  2   force =     0.01642213    0.00332135    0.01188741
     atom    8 type  1   force =    -0.00379830    0.02375186   -0.00595167
     atom    9 type  1   force =    -0.00562304   -0.01173845    0.00207808
     atom   10 type  2   force =    -0.00503644    0.00940103    0.02530552
     atom   11 type  1   force =     0.01692786    0.00329469    0.00158469
     atom   12 type  1   force =    -0.01079532   -0.01409902   -0.01544267
     atom   13 type  2   force =    -0.00067471    0.01955329   -0.01229802
     atom   14 type  1   force =    -0.01734425    0.00033515   -0.00016939
     atom   15 type  1   force =     0.01669754   -0.01688359    0.00591590
     atom   16 type  2   force =     0.01307112   -0.02404925    0.00688080
     atom   17 type  1   force =    -0.00953457    0.02125579    0.01373200
     atom   18 type  1   force =    -0.00418173   -0.00069829   -0.02664035
     atom   19 type  2   force =    -0.00729558    0.00178693    0.01591439
     atom   20 type  1   force =    -0.00999824    0.01320356   -0.02466809
     atom   21 type  1   force =     0.01999523   -0.01298117   -0.00505865
     atom   22 type  2   force =     0.00494133   -0.01158561   -0.02583964
     atom   23 type  1   force =    -0.01633977   -0.00227053    0.01679662
     atom   24 type  1   force =     0.01069812    0.00974611   -0.00282374
     atom   25 type  2   force =    -0.01693647    0.01974362   -0.00705111
     atom   26 type  1   force =     0.00988118   -0.02190063   -0.01378070
     atom   27 type  1   force =    -0.00035978   -0.00304596    0.02565688
     atom   28 type  2   force =     0.01004257    0.01305460    0.01901857
     atom   29 type  1   force =    -0.00338482   -0.02947829    0.00048287
     atom   30 type  1   force =    -0.00198175    0.01293180   -0.02601948
     The Martyna-Tuckerman correction term to forces
     atom    1 type  2   force =    -0.00029005   -0.00122430    0.00421819
     atom    2 type  1   force =     0.00000410   -0.00009457    0.00080224
     atom    3 type  1   force =    -0.00001021   -0.00017922    0.00064824
     atom    4 type  2   force =    -0.00092091   -0.00388130    0.00299487
     atom    5 type  1   force =    -0.00013386   -0.00049408    0.00059858
     atom    6 type  1   force =    -0.00016120   -0.00058506    0.00037264
     atom    7 type  2   force =     0.00049381   -0.00043338    0.00260187
     atom    8 type  1   force =     0.00005643    0.00221173    0.00038638
     atom    9 type  1   force =     0.00007351   -0.00026461    0.00035380
     atom   10 type  2   force =    -0.00007007   -0.00456456    0.00176184
     atom   11 type  1   force =    -0.00009498   -0.00072411    0.00038958
     atom   12 type  1   force =    -0.00002345   -0.00095686    0.00032537
     atom   13 type  2   force =    -0.00087311   -0.00196846    0.00128059
     atom   14 type  1   force =    -0.00011987   -0.00039630    0.00014348
     atom   15 type  1   force =    -0.00015138   -0.00056914    0.00006820
     atom   16 type  2   force =     0.00001199   -0.00363185    0.00044342
     atom   17 type  1   force =     0.00011706   -0.00039660    0.00021721
     atom   18 type  1   force =     0.00002873   -0.00077820    0.00008381
     atom   19 type  2   force =     0.00171871   -0.00092338    0.00375824
     atom   20 type  1   force =     0.00027572   -0.00016564    0.00055099
     atom   21 type  1   force =     0.00018365   -0.00009736    0.00063204
     atom   22 type  2   force =     0.00216419   -0.00193839    0.00231272
     atom   23 type  1   force =     0.00043843   -0.00031677    0.00052599
     atom   24 type  1   force =     0.00032134   -0.00023766    0.00048295
     atom   25 type  2   force =     0.00058679   -0.00219423    0.00117963
     atom   26 type  1   force =     0.00006771   -0.00047065    0.00023982
     atom   27 type  1   force =     0.00021858   -0.00038694    0.00020730
     atom   28 type  2   force =     0.00038676   -0.00036076    0.00377842
     atom   29 type  1   force =    -0.00000478   -0.00012438    0.00051884
     atom   30 type  1   force =     0.00002952   -0.00011369    0.00063916
     The non-local contrib.  to forces
     atom    1 type  2   force =    -0.49461103    1.72902549   -0.79222079
     atom    2 type  1   force =    -0.11022300   -0.12493515    0.12894372
     atom    3 type  1   force =     0.16698185   -0.08321474   -0.03613532
     atom    4 type  2   force =     0.76989423    1.06744901    1.52388044
     atom    5 type  1   force =    -0.03500725   -0.19454631   -0.00131996
     atom    6 type  1   force =    -0.07366273    0.07194763   -0.16751261
     atom    7 type  2   force =    -1.73255444    0.26222040   -0.75376964
     atom    8 type  1   force =     0.09559862   -0.17151508    0.07558060
     atom    9 type  1   force =     0.11444992    0.13310700    0.00916446
     atom   10 type  2   force =     0.94543967   -0.54382924   -1.58382022
     atom   11 type  1   force =    -0.17176455   -0.04624832    0.02549036
     atom   12 type  1   force =     0.06172448    0.11616285    0.16411083
     atom   13 type  2   force =    -0.51285908   -1.59300844    0.92147008
     atom   14 type  1   force =     0.17327669    0.03366528   -0.03535842
     atom   15 type  1   force =    -0.11504727    0.15915174   -0.07586289
     atom   16 type  2   force =    -1.16587170    1.40147229   -0.85392711
     atom   17 type  1   force =     0.08957100   -0.14679935   -0.09356573
     atom   18 type  1   force =     0.06350180   -0.00599302    0.18797789
     atom   19 type  2   force =     1.01997103    0.12828359   -1.71885734
     atom   20 type  1   force =     0.04258152   -0.10449700    0.16552480
     atom   21 type  1   force =    -0.17291141    0.07149310    0.02815686
     atom   22 type  2   force =     0.13551027    1.13990756    1.51180351
     atom   23 type  1   force =     0.11811613   -0.01698238   -0.17305946
     atom   24 type  1   force =    -0.12894740   -0.11928659   -0.01038906
     atom   25 type  2   force =     0.62421136   -1.70231608    0.82102132
     atom   26 type  1   force =    -0.06294315    0.15840932    0.09638435
     atom   27 type  1   force =     0.01033490    0.05035694   -0.18989089
     atom   28 type  2   force =    -0.21198206   -1.09797982   -1.74071008
     atom   29 type  1   force =     0.01144233    0.19689035    0.01191437
     atom   30 type  1   force =    -0.00284678   -0.06843369    0.18835913
     The ionic contribution  to forces
     atom    1 type  2   force =     7.24718483    2.67208825   -5.06390518
     atom    2 type  1   force =     2.84779393    3.02416018   -3.19317273
     atom    3 type  1   force =    -1.81016088    2.41437458   -0.59179096
     atom    4 type  2   force =     4.16573925   -5.77127171  -11.21150010
     atom    5 type  1   force =     1.40414550    2.69261338   -1.48415994
     atom    6 type  1   force =     2.36070823   -2.01113440    1.50489804
     atom    7 type  2   force =     0.31175649    9.33595589   -2.17971166
     atom    8 type  1   force =    -2.14377830    4.38359106   -1.85732030
     atom    9 type  1   force =    -2.41386462   -0.66208245   -0.94575692
     atom   10 type  2   force =    -7.07407855   -5.23773180   -4.65852093
     atom   11 type  1   force =     2.06454231   -0.13291543   -1.82435414
     atom   12 type  1   force =    -1.81267451   -2.93186221   -3.97281453
     atom   13 type  2   force =     8.39646919   -4.35624392    1.91861996
     atom   14 type  1   force =    -1.72417939   -1.79128036    1.38211696
     atom   15 type  1   force =     3.05714210   -3.84463420    1.83744117
     atom   16 type  2   force =    -1.25990574  -11.64665531    6.28981770
     atom   17 type  1   force =    -1.97319499    0.93721917    2.52831285
     atom   18 type  1   force =    -1.78215979   -1.59265960   -2.61337054
     atom   19 type  2   force =    -1.45932492    6.84772702   11.49026204
     atom   20 type  1   force =    -0.77388093    3.22690555   -1.53662791
     atom   21 type  1   force =     3.01854295   -0.18155102    1.08729581
     atom   22 type  2   force =    -7.56692707   -2.91924816    5.56078263
     atom   23 type  1   force =    -3.11581939    0.22036089    4.23268549
     atom   24 type  1   force =     1.11704448    1.83796570    1.67151392
     atom   25 type  2   force =   -11.01305015    4.95299126   -5.35365925
     atom   26 type  1   force =    -0.53780767   -2.27092661   -2.44797891
     atom   27 type  1   force =    -2.00660289   -0.55563559    2.78410999
     atom   28 type  2   force =     9.44432444    4.58933196    8.37203588
     atom   29 type  1   force =     1.30632081   -2.94809898    0.81158917
     atom   30 type  1   force =     1.72569529    1.71864687   -2.53683763
     The local contribution  to forces
     atom    1 type  2   force =    -6.78576936   -4.52584144    5.95445931
     atom    2 type  1   force =    -2.74443483   -2.92353395    3.08254248
     atom    3 type  1   force =     1.61630130   -2.33709989    0.64718012
     atom    4 type  2   force =    -4.90240748    4.65037689    9.60323339
     atom    5 type  1   force =    -1.36535989   -2.47865184    1.48030664
     atom    6 type  1   force =    -2.28056914    1.92521266   -1.32331696
     atom    7 type  2   force =     1.46979408   -9.70847088    3.01186367
     atom    8 type  1   force =     2.06261648   -4.23598279    1.79672465
     atom    9 type  1   force =     2.28885545    0.50232610    0.94254103
     atom   10 type  2   force =     6.14541377    5.85346020    6.35961092
     atom   11 type  1   force =    -1.86566867    0.18865253    1.80525079
     atom   12 type  1   force =     1.75446676    2.83144178    3.83369511
     atom   13 type  2   force =    -7.94032819    6.06867902   -2.88152293
     atom   14 type  1   force =     1.52120114    1.76548268   -1.34609367
     atom   15 type  1   force =    -2.95346930    3.71150164   -1.77292735
     atom   16 type  2   force =     2.41745191   10.15875251   -5.37555042
     atom   17 type  1   force =     1.87554820   -0.77767092   -2.41949007
     atom   18 type  1   force =     1.71407770    1.59533933    2.40872106
     atom   19 type  2   force =     0.47232959   -6.93733741   -9.65482706
     atom   20 type  1   force =     0.72699163   -3.11311368    1.36212003
     atom   21 type  1   force =    -2.81937271    0.10243088   -1.10809755
     atom   22 type  2   force =     7.50354468    1.75233281   -7.18108380
     atom   23 type  1   force =     3.01136401   -0.20913197   -4.08446700
     atom   24 type  1   force =    -0.96504060   -1.70341228   -1.66689340
     atom   25 type  2   force =    10.29501014   -3.22047586    4.49872168
     atom   26 type  1   force =     0.60218831    2.09575704    2.33921305
     atom   27 type  1   force =     1.99135432    0.50420902   -2.57487107
     atom   28 type  2   force =    -9.16546326   -3.43579918   -6.51231424
     atom   29 type  1   force =    -1.31765378    2.73250185   -0.81391927
     atom   30 type  1   force =    -1.72147118   -1.63709646    2.33895923
     The core correction contribution to forces
     atom    1 type  2   force =     0.00000000    0.00000000    0.00000000
     atom    2 type  1   force =     0.00000000    0.00000000    0.00000000
     atom    3 type  1   force =     0.00000000    0.00000000    0.00000000
     atom    4 type  2   force =     0.00000000    0.00000000    0.00000000
     atom    5 type  1   force =     0.00000000    0.00000000    0.00000000
     atom    6 type  1   force =     0.00000000    0.00000000    0.00000000
     atom    7 type  2   force =     0.00000000    0.00000000    0.00000000
     atom    8 type  1   force =     0.00000000    0.00000000    0.00000000
     atom    9 type  1   force =     0.00000000    0.00000000    0.00000000
     atom   10 type  2   force =     0.00000000    0.00000000    0.00000000
     atom   11 type  1   force =     0.00000000    0.00000000    0.00000000
     atom   12 type  1   force =     0.00000000    0.00000000    0.00000000
     atom   13 type  2   force =     0.00000000    0.00000000    0.00000000
     atom   14 type  1   force =     0.00000000    0.00000000    0.00000000
     atom   15 type  1   force =     0.00000000    0.00000000    0.00000000
     atom   16 type  2   force =     0.00000000    0.00000000    0.00000000
     atom   17 type  1   force =     0.00000000    0.00000000    0.00000000
     atom   18 type  1   force =     0.00000000    0.00000000    0.00000000
     atom   19 type  2   force =     0.00000000    0.00000000    0.00000000
     atom   20 type  1   force =     0.00000000    0.00000000    0.00000000
     atom   21 type  1   force =     0.00000000    0.00000000    0.00000000
     atom   22 type  2   force =     0.00000000    0.00000000    0.00000000
     atom   23 type  1   force =     0.00000000    0.00000000    0.00000000
     atom   24 type  1   force =     0.00000000    0.00000000    0.00000000
     atom   25 type  2   force =     0.00000000    0.00000000    0.00000000
     atom   26 type  1   force =     0.00000000    0.00000000    0.00000000
     atom   27 type  1   force =     0.00000000    0.00000000    0.00000000
     atom   28 type  2   force =     0.00000000    0.00000000    0.00000000
     atom   29 type  1   force =     0.00000000    0.00000000    0.00000000
     atom   30 type  1   force =     0.00000000    0.00000000    0.00000000
     The Hubbard contrib.    to forces
     atom    1 type  2   force =     0.00000000    0.00000000    0.00000000
     atom    2 type  1   force =     0.00000000    0.00000000    0.00000000
     atom    3 type  1   force =     0.00000000    0.00000000    0.00000000
     atom    4 type  2   force =     0.00000000    0.00000000    0.00000000
     atom    5 type  1   force =     0.00000000    0.00000000    0.00000000
     atom    6 type  1   force =     0.00000000    0.00000000    0.00000000
     atom    7 type  2   force =     0.00000000    0.00000000    0.00000000
     atom    8 type  1   force =     0.00000000    0.00000000    0.00000000
     atom    9 type  1   force =     0.00000000    0.00000000    0.00000000
     atom   10 type  2   force =     0.00000000    0.00000000    0.00000000
     atom   11 type  1   force =     0.00000000    0.00000000    0.00000000
     atom   12 type  1   force =     0.00000000    0.00000000    0.00000000
     atom   13 type  2   force =     0.00000000    0.00000000    0.00000000
     atom   14 type  1   force =     0.00000000    0.00000000    0.00000000
     atom   15 type  1   force =     0.00000000    0.00000000    0.00000000
     atom   16 type  2   force =     0.00000000    0.00000000    0.00000000
     atom   17 type  1   force =     0.00000000    0.00000000    0.00000000
     atom   18 type  1   force =     0.00000000    0.00000000    0.00000000
     atom   19 type  2   force =     0.00000000    0.00000000    0.00000000
     atom   20 type  1   force =     0.00000000    0.00000000    0.00000000
     atom   21 type  1   force =     0.00000000    0.00000000    0.00000000
     atom   22 type  2   force =     0.00000000    0.00000000    0.00000000
     atom   23 type  1   force =     0.00000000    0.00000000    0.00000000
     atom   24 type  1   force =     0.00000000    0.00000000    0.00000000
     atom   25 type  2   force =     0.00000000    0.00000000    0.00000000
     atom   26 type  1   force =     0.00000000    0.00000000    0.00000000
     atom   27 type  1   force =     0.00000000    0.00000000    0.00000000
     atom   28 type  2   force =     0.00000000    0.00000000    0.00000000
     atom   29 type  1   force =     0.00000000    0.00000000    0.00000000
     atom   30 type  1   force =     0.00000000    0.00000000    0.00000000
     The SCF correction term to forces
     atom    1 type  2   force =    -0.00002155   -0.00001159    0.00001380
     atom    2 type  1   force =    -0.00000362   -0.00000428    0.00000437
     atom    3 type  1   force =     0.00000059   -0.00000450    0.00000230
     atom    4 type  2   force =    -0.00001016   -0.00001086   -0.00000505
     atom    5 type  1   force =    -0.00000271   -0.00000203    0.00000277
     atom    6 type  1   force =    -0.00000372    0.00000199    0.00000007
     atom    7 type  2   force =     0.00000808   -0.00001480   -0.00000104
     atom    8 type  1   force =     0.00000254   -0.00000663    0.00000215
     atom    9 type  1   force =     0.00000318   -0.00000121    0.00000166
     atom   10 type  2   force =     0.00001316    0.00001182    0.00001711
     atom   11 type  1   force =    -0.00000269    0.00000098    0.00000406
     atom   12 type  1   force =     0.00000251    0.00000434    0.00000617
     atom   13 type  2   force =    -0.00001857    0.00001322   -0.00000872
     atom   14 type  1   force =     0.00000163    0.00000372   -0.00000275
     atom   15 type  1   force =    -0.00000456    0.00000590   -0.00000295
     atom   16 type  2   force =     0.00001026   -0.00000592    0.00000319
     atom   17 type  1   force =     0.00000243    0.00000142   -0.00000290
     atom   18 type  1   force =     0.00000264    0.00000303    0.00000177
     atom   19 type  2   force =    -0.00000475   -0.00000982    0.00001236
     atom   20 type  1   force =     0.00000039   -0.00000433    0.00000023
     atom   21 type  1   force =    -0.00000186   -0.00000166   -0.00000174
     atom   22 type  2   force =     0.00001936   -0.00000199   -0.00003011
     atom   23 type  1   force =     0.00000562   -0.00000081   -0.00000826
     atom   24 type  1   force =    -0.00000176   -0.00000437   -0.00000439
     atom   25 type  2   force =    -0.00000147    0.00001543   -0.00000316
     atom   26 type  1   force =     0.00000245    0.00000173    0.00000276
     atom   27 type  1   force =     0.00000406    0.00000045   -0.00000136
     atom   28 type  2   force =     0.00000392    0.00000614    0.00001930
     atom   29 type  1   force =    -0.00000275    0.00000401   -0.00000051
     atom   30 type  1   force =    -0.00000331   -0.00000214    0.00000389

     Total force =     0.135706     Total SCF correction =     0.000075

     Writing output data file H2OCluster_standard.save
 
     init_run     :      3.27s CPU      3.44s WALL (       1 calls)
     electrons    :    140.43s CPU    143.97s WALL (       1 calls)
     forces       :      1.71s CPU      1.85s WALL (       1 calls)

     Called by init_run:
     wfcinit      :      0.41s CPU      0.42s WALL (       1 calls)
     wfcinit:atom :      0.00s CPU      0.00s WALL (       1 calls)
     wfcinit:wfcr :      0.39s CPU      0.39s WALL (       1 calls)
     potinit      :      0.97s CPU      0.99s WALL (       1 calls)

     Called by electrons:
     c_bands      :     22.22s CPU     22.92s WALL (      22 calls)
     sum_band     :     12.31s CPU     13.31s WALL (      22 calls)
     v_of_rho     :      6.93s CPU      7.01s WALL (      23 calls)
     v_h          :     33.90s CPU     34.20s WALL (    1005 calls)
     v_xc         :      6.16s CPU      6.25s WALL (      23 calls)
     newd         :      5.52s CPU      6.55s WALL (      23 calls)
     mix_rho      :      1.65s CPU      1.68s WALL (      22 calls)

     Called by c_bands:
     init_us_2    :      0.28s CPU      0.30s WALL (      45 calls)
     cegterg      :     21.44s CPU     22.10s WALL (      22 calls)

     Called by sum_band:
     sum_band:bec :      0.00s CPU      0.00s WALL (      22 calls)
     addusdens    :      7.44s CPU      8.39s WALL (      22 calls)

     Called by *egterg:
     h_psi        :     16.61s CPU     17.17s WALL (      87 calls)
     s_psi        :      1.18s CPU      1.20s WALL (      87 calls)
     g_psi        :      0.06s CPU      0.10s WALL (      64 calls)
     cdiaghg      :      0.28s CPU      0.31s WALL (      86 calls)
     cegterg:over :      1.25s CPU      1.23s WALL (      64 calls)
     cegterg:upda :      1.15s CPU      1.16s WALL (      64 calls)
     cegterg:last :      0.56s CPU      0.56s WALL (      25 calls)

     Called by h_psi:
     h_psi:pot    :     16.49s CPU     16.99s WALL (      87 calls)
     h_psi:calbec :      1.04s CPU      1.01s WALL (      87 calls)
     vloc_psi     :     14.22s CPU     14.73s WALL (      87 calls)
     add_vuspsi   :      1.23s CPU      1.24s WALL (      87 calls)

     General routines
     calbec       :      1.38s CPU      1.36s WALL (     113 calls)
     fft          :     52.93s CPU     53.34s WALL (    2699 calls)
     ffts         :      0.17s CPU      0.18s WALL (      45 calls)
     fftw         :     11.96s CPU     12.31s WALL (    6630 calls)
     interpolate  :      1.20s CPU      1.20s WALL (      45 calls)
     davcio       :      0.00s CPU      0.00s WALL (       1 calls)
 
     Parallel routines
     fft_scatter  :     35.98s CPU     36.36s WALL (    9374 calls)
 
     Environ routines
     calc_eelect  :      0.06s CPU      0.05s WALL (      44 calls)
     calc_velect  :     76.89s CPU     77.52s WALL (      34 calls)
     dielectric   :      0.79s CPU      0.78s WALL (      24 calls)
     calc_felect  :      0.40s CPU      0.40s WALL (       1 calls)
 
     PWSCF        :  2m25.74s CPU     2m29.63s WALL

 
   This run was terminated on:  16:48:50  29Jan2018            

=------------------------------------------------------------------------------=
   JOB DONE.
=------------------------------------------------------------------------------=
