
     Program PWSCF v.6.7MaX starts on 23Sep2021 at 21:37:20 

     This program is part of the open-source Quantum ESPRESSO suite
     for quantum simulation of materials; please cite
         "P. Giannozzi et al., J. Phys.:Condens. Matter 21 395502 (2009);
         "P. Giannozzi et al., J. Phys.:Condens. Matter 29 465901 (2017);
          URL http://www.quantum-espresso.org", 
     in publications or presentations arising from this work. More details at
     http://www.quantum-espresso.org/quote

     Parallel version (MPI), running on     8 processors

     MPI processes distributed on     1 nodes
     R & G space division:  proc/nbgrp/npool/nimage =       8
     Waiting for input...
     Reading input from standard input

     Current dimensions of program PWSCF are:
     Max number of different atomic species (ntypx) = 10
     Max number of k-points (npk) =  40000
     Max angular momentum in pseudopotentials (lmaxx) =  3

     Reading input from environ.in

     ================================================================================

     Reading ENVIRON namelist

     Reading BOUNDARY namelist

     Checking boundary derivatives
     derivatives               = chain          ! SCCS default

     Setting up water environment (solvent mode = electronic)
     env_static_permittivity   = 78.3D0         
     env_optical_permittivity  = 1.D0           
     env_surface_tension       = 50.D0          
     env_pressure              = -0.35D0        
     rhomax                    = 0.005          
     rhomin                    = 0.0001         

     Reading ELECTROSTATIC namelist

     Setting up electrostatic problem
     problem                   = generalized    
     solver                    = cg             

     Checking PBC correction
     pbc_correction            = none           ! default

     ================================================================================
 
     file H.pbe-rrkjus.UPF: wavefunction(s)  1S renormalized
     file O.pbe-rrkjus.UPF: wavefunction(s)  2S renormalized

     Subspace diagonalization in iterative solution of the eigenvalue problem:
     a serial algorithm will be used

 
     Parallelization info
     --------------------
     sticks:   dense  smooth     PW     G-vecs:    dense   smooth      PW
     Min        1950     975    242               183178    64767    8072
     Max        1952     977    243               183179    64769    8075
     Sum       15613    7809   1941              1465425   518139   64589
 


     bravais-lattice index     =            0
     lattice parameter (alat)  =      26.4562  a.u.
     unit-cell volume          =   18517.4299 (a.u.)^3
     number of atoms/cell      =           30
     number of atomic types    =            2
     number of electrons       =        80.00
     number of Kohn-Sham states=           40
     kinetic-energy cutoff     =      35.0000  Ry
     charge density cutoff     =     280.0000  Ry
     scf convergence threshold =      2.0E-08
     mixing beta               =       0.3000
     number of iterations used =            8  plain     mixing
     Exchange-correlation= SLA  PW   PBE  PBE
                           (   1   4   3   4   0   0   0)
 

     Environ Module
     ==============

     Please cite
         O. Andreussi, I. Dabo and N. Marzari, J. Chem. Phys. 136, 064102 (2012)         
     in publications or presentations arising from this work.

     compensation onset threshold      =               0.1000E+01
     interface is solvent aware            
     static permittivity               =                    78.30
     epsilon calculation mode          =               electronic
     surface tension in input (dyn/cm) =                    50.00
     surface tension in internal units =               0.6423E-04
     external pressure in input (GPa)  =                    -0.35
     external pressure in inter. units =              -0.2379E-04

     Electrostatic Setup
     -------------------
     electrostatic problem to solve    = generalized             
     numerical solver adopted          = cg                      
     type of auxiliary density adopted = none                    
     type of core tool for poisson     = fft                     


     Assuming isolated system, Martyna-Tuckerman method


     celldm(1)=  26.456166  celldm(2)=   0.000000  celldm(3)=   0.000000
     celldm(4)=   0.000000  celldm(5)=   0.000000  celldm(6)=   0.000000

     crystal axes: (cart. coord. in units of alat)
               a(1) = (   1.000000   0.000000   0.000000 )  
               a(2) = (   0.000000   1.000000   0.000000 )  
               a(3) = (   0.000000   0.000000   1.000000 )  

     reciprocal axes: (cart. coord. in units 2 pi/alat)
               b(1) = (  1.000000  0.000000  0.000000 )  
               b(2) = (  0.000000  1.000000  0.000000 )  
               b(3) = (  0.000000  0.000000  1.000000 )  


     PseudoPot. # 1 for H  read from file:
     /home/simplogic86/Work/QE1/pseudo/H.pbe-rrkjus.UPF
     MD5 check sum: 2d52a7f45632fd764c17cc6affed14c8
     Pseudo is Ultrasoft, Zval =  1.0
     Generated by new atomic code, or converted to UPF format
     Using radial grid of 1061 points,  2 beta functions with: 
                l(1) =   0
                l(2) =   0
     Q(r) pseudized with 0 coefficients 


     PseudoPot. # 2 for O  read from file:
     /home/simplogic86/Work/QE1/pseudo/O.pbe-rrkjus.UPF
     MD5 check sum: fadcf19ee70a498d3030e2e79cf929a4
     Pseudo is Ultrasoft, Zval =  6.0
     Generated by new atomic code, or converted to UPF format
     Using radial grid of 1269 points,  4 beta functions with: 
                l(1) =   0
                l(2) =   0
                l(3) =   1
                l(4) =   1
     Q(r) pseudized with 0 coefficients 


     atomic species   valence    mass     pseudopotential
        H              1.00     1.00794     H ( 1.00)
        O              6.00    15.99940     O ( 1.00)

     No symmetry found


                                    s                        frac. trans.

      isym =  1     identity                                     

 cryst.   s( 1) = (     1          0          0      )
                  (     0          1          0      )
                  (     0          0          1      )

 cart.    s( 1) = (  1.0000000  0.0000000  0.0000000 )
                  (  0.0000000  1.0000000  0.0000000 )
                  (  0.0000000  0.0000000  1.0000000 )


   Cartesian axes

     site n.     atom                  positions (alat units)
         1           O   tau(   1) = (   0.6957700   0.6855114   0.4644188  )
         2           H   tau(   2) = (   0.7306486   0.7273686   0.4222045  )
         3           H   tau(   3) = (   0.6343129   0.7176614   0.4766545  )
         4           O   tau(   4) = (   0.6657129   0.4864757   0.4344760  )
         5           H   tau(   5) = (   0.6785629   0.5550186   0.4363974  )
         6           H   tau(   6) = (   0.6921843   0.4624329   0.4944974  )
         7           O   tau(   7) = (   0.5221557   0.7567686   0.5198402  )
         8           H   tau(   8) = (   0.4897343   0.8122043   0.4947402  )
         9           H   tau(   9) = (   0.4745771   0.7035614   0.5154760  )
        10           O   tau(  10) = (   0.4803486   0.4447186   0.4503402  )
        11           H   tau(  11) = (   0.5483914   0.4622257   0.4388545  )
        12           H   tau(  12) = (   0.4614343   0.4068186   0.3959688  )
        13           O   tau(  13) = (   0.7065986   0.4282186   0.6234688  )
        14           H   tau(  14) = (   0.6385200   0.4135114   0.6381188  )
        15           H   tau(  15) = (   0.7430771   0.3754971   0.6487474  )
        16           O   tau(  16) = (   0.5196843   0.3976686   0.6452045  )
        17           H   tau(  17) = (   0.4871771   0.4506186   0.6772760  )
        18           H   tau(  18) = (   0.4966557   0.4010971   0.5794974  )
        19           O   tau(  19) = (   0.5641700   0.7000971   0.7160760  )
        20           H   tau(  20) = (   0.5505343   0.7358757   0.6580117  )
        21           H   tau(  21) = (   0.6284843   0.6739471   0.7040474  )
        22           O   tau(  22) = (   0.4318486   0.5647900   0.7140545  )
        23           H   tau(  23) = (   0.3939557   0.5713900   0.7712474  )
        24           H   tau(  24) = (   0.4836414   0.6137329   0.7196188  )
        25           O   tau(  25) = (   0.3983414   0.6136900   0.5211760  )
        26           H   tau(  26) = (   0.4211414   0.5564900   0.4880688  )
        27           H   tau(  27) = (   0.3953843   0.5944543   0.5882688  )
        28           O   tau(  28) = (   0.7377414   0.6260686   0.6592688  )
        29           H   tau(  29) = (   0.7335271   0.5566686   0.6534545  )
        30           H   tau(  30) = (   0.7385414   0.6482757   0.5933831  )

   Crystallographic axes

     site n.     atom                  positions (cryst. coord.)
         1           O   tau(   1) = (  0.6957700  0.6855114  0.4644188  )
         2           H   tau(   2) = (  0.7306486  0.7273686  0.4222045  )
         3           H   tau(   3) = (  0.6343129  0.7176614  0.4766545  )
         4           O   tau(   4) = (  0.6657129  0.4864757  0.4344760  )
         5           H   tau(   5) = (  0.6785629  0.5550186  0.4363974  )
         6           H   tau(   6) = (  0.6921843  0.4624329  0.4944974  )
         7           O   tau(   7) = (  0.5221557  0.7567686  0.5198402  )
         8           H   tau(   8) = (  0.4897343  0.8122043  0.4947402  )
         9           H   tau(   9) = (  0.4745771  0.7035614  0.5154760  )
        10           O   tau(  10) = (  0.4803486  0.4447186  0.4503402  )
        11           H   tau(  11) = (  0.5483914  0.4622257  0.4388545  )
        12           H   tau(  12) = (  0.4614343  0.4068186  0.3959688  )
        13           O   tau(  13) = (  0.7065986  0.4282186  0.6234688  )
        14           H   tau(  14) = (  0.6385200  0.4135114  0.6381188  )
        15           H   tau(  15) = (  0.7430771  0.3754971  0.6487474  )
        16           O   tau(  16) = (  0.5196843  0.3976686  0.6452045  )
        17           H   tau(  17) = (  0.4871771  0.4506186  0.6772760  )
        18           H   tau(  18) = (  0.4966557  0.4010971  0.5794974  )
        19           O   tau(  19) = (  0.5641700  0.7000971  0.7160760  )
        20           H   tau(  20) = (  0.5505343  0.7358757  0.6580117  )
        21           H   tau(  21) = (  0.6284843  0.6739471  0.7040474  )
        22           O   tau(  22) = (  0.4318486  0.5647900  0.7140545  )
        23           H   tau(  23) = (  0.3939557  0.5713900  0.7712474  )
        24           H   tau(  24) = (  0.4836414  0.6137329  0.7196188  )
        25           O   tau(  25) = (  0.3983414  0.6136900  0.5211760  )
        26           H   tau(  26) = (  0.4211414  0.5564900  0.4880688  )
        27           H   tau(  27) = (  0.3953843  0.5944543  0.5882688  )
        28           O   tau(  28) = (  0.7377414  0.6260686  0.6592688  )
        29           H   tau(  29) = (  0.7335271  0.5566686  0.6534545  )
        30           H   tau(  30) = (  0.7385414  0.6482757  0.5933831  )

     number of k points=     1
                       cart. coord. in units 2pi/alat
        k(    1) = (   0.0000000   0.0000000   0.0000000), wk =   2.0000000

                       cryst. coord.
        k(    1) = (   0.0000000   0.0000000   0.0000000), wk =   2.0000000

     Dense  grid:  1465425 G-vectors     FFT dimensions: ( 144, 144, 144)

     Smooth grid:   518139 G-vectors     FFT dimensions: ( 100, 100, 100)

     Dynamical RAM for                 wfc:       4.94 MB

     Dynamical RAM for     wfc (w. buffer):       4.94 MB

     Dynamical RAM for           str. fact:       5.59 MB

     Dynamical RAM for           local pot:       0.00 MB

     Dynamical RAM for          nlocal pot:      14.82 MB

     Dynamical RAM for                qrad:       0.77 MB

     Dynamical RAM for          rho,v,vnew:      16.93 MB

     Dynamical RAM for               rhoin:       5.64 MB

     Dynamical RAM for            rho*nmix:      44.72 MB

     Dynamical RAM for           G-vectors:      10.98 MB

     Dynamical RAM for          h,s,v(r/c):       0.29 MB

     Dynamical RAM for          <psi|beta>:       0.07 MB

     Dynamical RAM for                 psi:       9.88 MB

     Dynamical RAM for                hpsi:       9.88 MB

     Dynamical RAM for                spsi:       9.88 MB

     Dynamical RAM for      wfcinit/wfcrot:      14.90 MB

     Dynamical RAM for           addusdens:     176.09 MB

     Dynamical RAM for          addusforce:     283.72 MB

     Estimated static dynamical RAM per process >     127.01 MB

     Estimated max dynamical RAM per process >     410.73 MB

     Estimated total dynamical RAM >       3.21 GB

     Initial potential from superposition of free atoms

     starting charge   78.07590, renormalised to   80.00000

     negative rho (up, down):  1.482E-03 0.000E+00
     Starting wfcs are   60 randomized atomic wfcs

     total cpu time spent up to now is       22.9 secs

     Self-consistent Calculation

     iteration #  1     ecut=    35.00 Ry     beta= 0.30
     Davidson diagonalization with overlap
     ethr =  1.00E-02,  avg # of iterations =  3.0

     negative rho (up, down):  9.343E-04 0.000E+00

     total cpu time spent up to now is       38.3 secs

     total energy              =    -343.65802646 Ry
     estimated scf accuracy    <       5.45425100 Ry
     electrostatic embedding   =       0.00000000 Ry
     cavitation energy         =       0.11084234 Ry
     PV energy                 =      -0.15362324 Ry
     correction to one-el term =       0.00000000 Ry

     iteration #  2     ecut=    35.00 Ry     beta= 0.30
     Davidson diagonalization with overlap
     ethr =  6.82E-03,  avg # of iterations =  1.0

     negative rho (up, down):  1.476E-03 0.000E+00

     total cpu time spent up to now is       51.3 secs

     total energy              =    -342.31576932 Ry
     estimated scf accuracy    <       2.12817613 Ry
     electrostatic embedding   =       0.00000000 Ry
     cavitation energy         =       0.09643254 Ry
     PV energy                 =      -0.12648977 Ry
     correction to one-el term =       0.00000000 Ry

     iteration #  3     ecut=    35.00 Ry     beta= 0.30
     Davidson diagonalization with overlap
     ethr =  2.66E-03,  avg # of iterations =  3.0

     negative rho (up, down):  1.386E-03 0.000E+00

     add environment contribution to local potential

     total cpu time spent up to now is       70.6 secs

     total energy              =    -342.97255521 Ry
     estimated scf accuracy    <       0.61390409 Ry
     electrostatic embedding   =       0.00000000 Ry
     cavitation energy         =       0.06355317 Ry
     PV energy                 =      -0.06406022 Ry
     correction to one-el term =       0.00000000 Ry

     iteration #  4     ecut=    35.00 Ry     beta= 0.30
     Davidson diagonalization with overlap
     ethr =  7.67E-04,  avg # of iterations =  3.0

     negative rho (up, down):  2.674E-03 0.000E+00

     add environment contribution to local potential

     total cpu time spent up to now is       94.7 secs

     total energy              =    -343.01044683 Ry
     estimated scf accuracy    <       0.42758396 Ry
     electrostatic embedding   =      -0.10693535 Ry
     cavitation energy         =       0.07058892 Ry
     PV energy                 =      -0.07776445 Ry
     correction to one-el term =      -6.45419368 Ry

     iteration #  5     ecut=    35.00 Ry     beta= 0.30
     Davidson diagonalization with overlap
     ethr =  5.34E-04,  avg # of iterations =  1.0

     negative rho (up, down):  1.348E-03 0.000E+00

     add environment contribution to local potential

     total cpu time spent up to now is      116.2 secs

     total energy              =    -343.04305352 Ry
     estimated scf accuracy    <       0.04314552 Ry
     electrostatic embedding   =      -0.07470931 Ry
     cavitation energy         =       0.05759242 Ry
     PV energy                 =      -0.04947324 Ry
     correction to one-el term =       0.13471483 Ry

     iteration #  6     ecut=    35.00 Ry     beta= 0.30
     Davidson diagonalization with overlap
     ethr =  5.39E-05,  avg # of iterations =  7.0

     negative rho (up, down):  1.512E-03 0.000E+00

     add environment contribution to local potential

     total cpu time spent up to now is      142.6 secs

     total energy              =    -343.14099155 Ry
     estimated scf accuracy    <       0.09231951 Ry
     electrostatic embedding   =      -0.08701648 Ry
     cavitation energy         =       0.05725847 Ry
     PV energy                 =      -0.04902887 Ry
     correction to one-el term =       0.45968673 Ry

     iteration #  7     ecut=    35.00 Ry     beta= 0.30
     Davidson diagonalization with overlap
     ethr =  5.39E-05,  avg # of iterations =  1.0

     negative rho (up, down):  2.676E-03 0.000E+00

     add environment contribution to local potential

     total cpu time spent up to now is      163.5 secs

     total energy              =    -343.11221596 Ry
     estimated scf accuracy    <       0.11957084 Ry
     electrostatic embedding   =      -0.08738758 Ry
     cavitation energy         =       0.05700619 Ry
     PV energy                 =      -0.04849851 Ry
     correction to one-el term =       0.68096504 Ry

     iteration #  8     ecut=    35.00 Ry     beta= 0.30
     Davidson diagonalization with overlap
     ethr =  5.39E-05,  avg # of iterations =  1.0

     negative rho (up, down):  1.508E-03 0.000E+00

     add environment contribution to local potential

     total cpu time spent up to now is      183.7 secs

     total energy              =    -343.08134327 Ry
     estimated scf accuracy    <       0.06978357 Ry
     electrostatic embedding   =      -0.09137861 Ry
     cavitation energy         =       0.05777815 Ry
     PV energy                 =      -0.04990369 Ry
     correction to one-el term =       0.39123559 Ry

     iteration #  9     ecut=    35.00 Ry     beta= 0.30
     Davidson diagonalization with overlap
     ethr =  5.39E-05,  avg # of iterations =  3.0

     negative rho (up, down):  1.372E-03 0.000E+00

     add environment contribution to local potential

     total cpu time spent up to now is      206.7 secs

     total energy              =    -343.09397201 Ry
     estimated scf accuracy    <       0.00404508 Ry
     electrostatic embedding   =      -0.09351588 Ry
     cavitation energy         =       0.05876786 Ry
     PV energy                 =      -0.05179832 Ry
     correction to one-el term =      -0.10146376 Ry

     iteration # 10     ecut=    35.00 Ry     beta= 0.30
     Davidson diagonalization with overlap
     ethr =  5.06E-06,  avg # of iterations =  5.0

     negative rho (up, down):  9.679E-04 0.000E+00

     add environment contribution to local potential

     total cpu time spent up to now is      228.4 secs

     total energy              =    -343.09608860 Ry
     estimated scf accuracy    <       0.00091167 Ry
     electrostatic embedding   =      -0.09363327 Ry
     cavitation energy         =       0.05878780 Ry
     PV energy                 =      -0.05183988 Ry
     correction to one-el term =      -0.11147320 Ry

     iteration # 11     ecut=    35.00 Ry     beta= 0.30
     Davidson diagonalization with overlap
     ethr =  1.14E-06,  avg # of iterations =  4.0

     negative rho (up, down):  1.037E-03 0.000E+00

     add environment contribution to local potential

     total cpu time spent up to now is      246.9 secs

     total energy              =    -343.09630967 Ry
     estimated scf accuracy    <       0.00049616 Ry
     electrostatic embedding   =      -0.09381360 Ry
     cavitation energy         =       0.05889320 Ry
     PV energy                 =      -0.05205532 Ry
     correction to one-el term =      -0.17152721 Ry

     iteration # 12     ecut=    35.00 Ry     beta= 0.30
     Davidson diagonalization with overlap
     ethr =  6.20E-07,  avg # of iterations =  4.0

     negative rho (up, down):  9.678E-04 0.000E+00

     add environment contribution to local potential

     total cpu time spent up to now is      268.9 secs

     total energy              =    -343.09739678 Ry
     estimated scf accuracy    <       0.00068555 Ry
     electrostatic embedding   =      -0.09412076 Ry
     cavitation energy         =       0.05897805 Ry
     PV energy                 =      -0.05219533 Ry
     correction to one-el term =      -0.19606375 Ry

     iteration # 13     ecut=    35.00 Ry     beta= 0.30
     Davidson diagonalization with overlap
     ethr =  6.20E-07,  avg # of iterations =  7.0

     negative rho (up, down):  7.988E-04 0.000E+00

     add environment contribution to local potential

     total cpu time spent up to now is      291.1 secs

     total energy              =    -343.09859029 Ry
     estimated scf accuracy    <       0.00655179 Ry
     electrostatic embedding   =      -0.09483175 Ry
     cavitation energy         =       0.05921628 Ry
     PV energy                 =      -0.05265266 Ry
     correction to one-el term =      -0.32471167 Ry

     iteration # 14     ecut=    35.00 Ry     beta= 0.30
     Davidson diagonalization with overlap
     ethr =  6.20E-07,  avg # of iterations =  2.0

     negative rho (up, down):  1.039E-03 0.000E+00

     add environment contribution to local potential

     total cpu time spent up to now is      309.0 secs

     total energy              =    -343.10177032 Ry
     estimated scf accuracy    <       0.00747277 Ry
     electrostatic embedding   =      -0.09345344 Ry
     cavitation energy         =       0.05937253 Ry
     PV energy                 =      -0.05300534 Ry
     correction to one-el term =      -0.40766859 Ry

     iteration # 15     ecut=    35.00 Ry     beta= 0.30
     Davidson diagonalization with overlap
     ethr =  6.20E-07,  avg # of iterations =  7.0

     negative rho (up, down):  1.543E-03 0.000E+00

     add environment contribution to local potential

     total cpu time spent up to now is      332.8 secs

     total energy              =    -343.10052363 Ry
     estimated scf accuracy    <       0.01851195 Ry
     electrostatic embedding   =      -0.09393813 Ry
     cavitation energy         =       0.05997552 Ry
     PV energy                 =      -0.05414106 Ry
     correction to one-el term =      -0.55285495 Ry

     iteration # 16     ecut=    35.00 Ry     beta= 0.30
     Davidson diagonalization with overlap
     ethr =  6.20E-07,  avg # of iterations =  2.0

     negative rho (up, down):  1.382E-03 0.000E+00

     add environment contribution to local potential

     total cpu time spent up to now is      352.8 secs

     total energy              =    -343.10227600 Ry
     estimated scf accuracy    <       0.01622666 Ry
     electrostatic embedding   =      -0.09458658 Ry
     cavitation energy         =       0.05995367 Ry
     PV energy                 =      -0.05398079 Ry
     correction to one-el term =      -0.49657136 Ry

     iteration # 17     ecut=    35.00 Ry     beta= 0.30
     Davidson diagonalization with overlap
     ethr =  6.20E-07,  avg # of iterations =  2.0

     negative rho (up, down):  1.901E-03 0.000E+00

     add environment contribution to local potential

     total cpu time spent up to now is      370.6 secs

     total energy              =    -343.10043431 Ry
     estimated scf accuracy    <       0.01935476 Ry
     electrostatic embedding   =      -0.09419197 Ry
     cavitation energy         =       0.06007378 Ry
     PV energy                 =      -0.05421505 Ry
     correction to one-el term =      -0.56023183 Ry

     iteration # 18     ecut=    35.00 Ry     beta= 0.30
     Davidson diagonalization with overlap
     ethr =  6.20E-07,  avg # of iterations =  2.0

     negative rho (up, down):  1.401E-03 0.000E+00

     add environment contribution to local potential

     total cpu time spent up to now is      391.6 secs

     total energy              =    -343.10024166 Ry
     estimated scf accuracy    <       0.01652326 Ry
     electrostatic embedding   =      -0.09621936 Ry
     cavitation energy         =       0.06007278 Ry
     PV energy                 =      -0.05406822 Ry
     correction to one-el term =      -0.52520984 Ry

     iteration # 19     ecut=    35.00 Ry     beta= 0.30
     Davidson diagonalization with overlap
     ethr =  6.20E-07,  avg # of iterations =  5.0

     negative rho (up, down):  1.386E-03 0.000E+00

     add environment contribution to local potential

     total cpu time spent up to now is      412.4 secs

     total energy              =    -343.09742961 Ry
     estimated scf accuracy    <       0.01593579 Ry
     electrostatic embedding   =      -0.08859855 Ry
     cavitation energy         =       0.05942370 Ry
     PV energy                 =      -0.05321636 Ry
     correction to one-el term =      -0.37211200 Ry

     iteration # 20     ecut=    35.00 Ry     beta= 0.30
     Davidson diagonalization with overlap
     ethr =  6.20E-07,  avg # of iterations =  5.0

     negative rho (up, down):  1.153E-03 0.000E+00

     add environment contribution to local potential

     total cpu time spent up to now is      432.1 secs

     total energy              =    -343.09703234 Ry
     estimated scf accuracy    <       0.00871897 Ry
     electrostatic embedding   =      -0.09206900 Ry
     cavitation energy         =       0.05927955 Ry
     PV energy                 =      -0.05299904 Ry
     correction to one-el term =      -0.33049010 Ry

     iteration # 21     ecut=    35.00 Ry     beta= 0.30
     Davidson diagonalization with overlap
     ethr =  6.20E-07,  avg # of iterations =  5.0

     negative rho (up, down):  1.015E-03 0.000E+00

     add environment contribution to local potential

     total cpu time spent up to now is      454.1 secs

     total energy              =    -343.09464928 Ry
     estimated scf accuracy    <       0.00530802 Ry
     electrostatic embedding   =      -0.09291855 Ry
     cavitation energy         =       0.05920918 Ry
     PV energy                 =      -0.05280860 Ry
     correction to one-el term =      -0.32882716 Ry

     iteration # 22     ecut=    35.00 Ry     beta= 0.30
     Davidson diagonalization with overlap
     ethr =  6.20E-07,  avg # of iterations =  8.0

     negative rho (up, down):  1.203E-03 0.000E+00

     add environment contribution to local potential

     total cpu time spent up to now is      477.5 secs

     total energy              =    -343.09625938 Ry
     estimated scf accuracy    <       0.00017617 Ry
     electrostatic embedding   =      -0.09653957 Ry
     cavitation energy         =       0.05895766 Ry
     PV energy                 =      -0.05222066 Ry
     correction to one-el term =      -0.24373857 Ry

     iteration # 23     ecut=    35.00 Ry     beta= 0.30
     Davidson diagonalization with overlap
     ethr =  2.20E-07,  avg # of iterations =  4.0

     negative rho (up, down):  1.413E-03 0.000E+00

     add environment contribution to local potential

     total cpu time spent up to now is      497.3 secs

     total energy              =    -343.09626113 Ry
     estimated scf accuracy    <       0.00005868 Ry
     electrostatic embedding   =      -0.09699231 Ry
     cavitation energy         =       0.05898776 Ry
     PV energy                 =      -0.05230231 Ry
     correction to one-el term =      -0.21163292 Ry

     iteration # 24     ecut=    35.00 Ry     beta= 0.30
     Davidson diagonalization with overlap
     ethr =  7.34E-08,  avg # of iterations =  5.0

     negative rho (up, down):  1.343E-03 0.000E+00

     add environment contribution to local potential

     total cpu time spent up to now is      519.5 secs

     total energy              =    -343.09626818 Ry
     estimated scf accuracy    <       0.00003038 Ry
     electrostatic embedding   =      -0.09749635 Ry
     cavitation energy         =       0.05902089 Ry
     PV energy                 =      -0.05238276 Ry
     correction to one-el term =      -0.20229724 Ry

     iteration # 25     ecut=    35.00 Ry     beta= 0.30
     Davidson diagonalization with overlap
     ethr =  3.80E-08,  avg # of iterations =  2.0

     negative rho (up, down):  1.398E-03 0.000E+00

     add environment contribution to local potential

     total cpu time spent up to now is      539.5 secs

     total energy              =    -343.09626653 Ry
     estimated scf accuracy    <       0.00001118 Ry
     electrostatic embedding   =      -0.09815627 Ry
     cavitation energy         =       0.05902526 Ry
     PV energy                 =      -0.05238780 Ry
     correction to one-el term =      -0.20849362 Ry

     iteration # 26     ecut=    35.00 Ry     beta= 0.30
     Davidson diagonalization with overlap
     ethr =  1.40E-08,  avg # of iterations =  6.0

     negative rho (up, down):  1.394E-03 0.000E+00

     add environment contribution to local potential

     total cpu time spent up to now is      560.2 secs

     total energy              =    -343.09629678 Ry
     estimated scf accuracy    <       0.00001604 Ry
     electrostatic embedding   =      -0.09891331 Ry
     cavitation energy         =       0.05897568 Ry
     PV energy                 =      -0.05230799 Ry
     correction to one-el term =      -0.19430232 Ry

     iteration # 27     ecut=    35.00 Ry     beta= 0.30
     Davidson diagonalization with overlap
     ethr =  1.40E-08,  avg # of iterations =  3.0

     negative rho (up, down):  1.349E-03 0.000E+00

     add environment contribution to local potential

     total cpu time spent up to now is      580.9 secs

     total energy              =    -343.09629527 Ry
     estimated scf accuracy    <       0.00000285 Ry
     electrostatic embedding   =      -0.09892611 Ry
     cavitation energy         =       0.05897161 Ry
     PV energy                 =      -0.05232450 Ry
     correction to one-el term =      -0.19398888 Ry

     iteration # 28     ecut=    35.00 Ry     beta= 0.30
     Davidson diagonalization with overlap
     ethr =  3.57E-09,  avg # of iterations =  6.0

     negative rho (up, down):  1.346E-03 0.000E+00

     add environment contribution to local potential

     total cpu time spent up to now is      603.3 secs

     total energy              =    -343.09629359 Ry
     estimated scf accuracy    <       0.00000094 Ry
     electrostatic embedding   =      -0.09895950 Ry
     cavitation energy         =       0.05897549 Ry
     PV energy                 =      -0.05234200 Ry
     correction to one-el term =      -0.19735262 Ry

     iteration # 29     ecut=    35.00 Ry     beta= 0.30
     Davidson diagonalization with overlap
     ethr =  1.17E-09,  avg # of iterations =  2.0

     negative rho (up, down):  1.348E-03 0.000E+00

     add environment contribution to local potential

     total cpu time spent up to now is      623.2 secs

     total energy              =    -343.09629376 Ry
     estimated scf accuracy    <       0.00000075 Ry
     electrostatic embedding   =      -0.09899804 Ry
     cavitation energy         =       0.05897418 Ry
     PV energy                 =      -0.05233985 Ry
     correction to one-el term =      -0.19700249 Ry

     iteration # 30     ecut=    35.00 Ry     beta= 0.30
     Davidson diagonalization with overlap
     ethr =  9.36E-10,  avg # of iterations =  4.0

     negative rho (up, down):  1.347E-03 0.000E+00

     add environment contribution to local potential

     total cpu time spent up to now is      644.4 secs

     total energy              =    -343.09629442 Ry
     estimated scf accuracy    <       0.00000003 Ry
     electrostatic embedding   =      -0.09911863 Ry
     cavitation energy         =       0.05897103 Ry
     PV energy                 =      -0.05233660 Ry
     correction to one-el term =      -0.19581694 Ry

     iteration # 31     ecut=    35.00 Ry     beta= 0.30
     Davidson diagonalization with overlap
     ethr =  4.36E-11,  avg # of iterations = 10.0

     negative rho (up, down):  1.346E-03 0.000E+00

     add environment contribution to local potential

     total cpu time spent up to now is      668.2 secs

     total energy              =    -343.09629372 Ry
     estimated scf accuracy    <       0.00000013 Ry
     electrostatic embedding   =      -0.09921333 Ry
     cavitation energy         =       0.05896996 Ry
     PV energy                 =      -0.05233815 Ry
     correction to one-el term =      -0.19539937 Ry

     iteration # 32     ecut=    35.00 Ry     beta= 0.30
     Davidson diagonalization with overlap
     ethr =  4.36E-11,  avg # of iterations =  1.0

     negative rho (up, down):  1.349E-03 0.000E+00

     add environment contribution to local potential

     total cpu time spent up to now is      687.6 secs

     total energy              =    -343.09629359 Ry
     estimated scf accuracy    <       0.00000012 Ry
     electrostatic embedding   =      -0.09921966 Ry
     cavitation energy         =       0.05896992 Ry
     PV energy                 =      -0.05233832 Ry
     correction to one-el term =      -0.19537437 Ry

     iteration # 33     ecut=    35.00 Ry     beta= 0.30
     Davidson diagonalization with overlap
     ethr =  4.36E-11,  avg # of iterations =  6.0

     negative rho (up, down):  1.355E-03 0.000E+00

     the potential shift due to the Gaussian-smeared nuclei is    -0.0923 ev

     total cpu time spent up to now is      700.2 secs

     End of self-consistent calculation

          k = 0.0000 0.0000 0.0000 ( 64589 PWs)   bands (ev):

   -25.4409 -25.2437 -25.1881 -25.1526 -24.9912 -24.9111 -24.8106 -24.7468
   -24.5745 -24.5096 -13.1340 -13.0769 -13.0408 -12.8957 -12.8168 -12.7421
   -12.7054 -12.6477 -12.6295 -12.5661 -10.5468 -10.3859  -9.6978  -9.6064
    -9.4710  -9.3169  -8.8396  -8.7976  -8.7138  -8.1724  -7.4504  -7.3622
    -7.3331  -7.2892  -7.2358  -7.2117  -7.1911  -7.1830  -7.1343  -6.9951

     occupation numbers 
     1.0000   1.0000   1.0000   1.0000   1.0000   1.0000   1.0000   1.0000
     1.0000   1.0000   1.0000   1.0000   1.0000   1.0000   1.0000   1.0000
     1.0000   1.0000   1.0000   1.0000   1.0000   1.0000   1.0000   1.0000
     1.0000   1.0000   1.0000   1.0000   1.0000   1.0000   1.0000   1.0000
     1.0000   1.0000   1.0000   1.0000   1.0000   1.0000   1.0000   1.0000

     highest occupied level (ev):    -6.9951

!    total energy              =    -343.09629304 Ry
     estimated scf accuracy    <          7.9E-09 Ry

     The total energy is the sum of the following terms:
     one-electron contribution =   -2464.09307908 Ry
     hartree contribution      =    1246.97929890 Ry
     xc contribution           =     -84.63870115 Ry
     ewald contribution        =     958.94390357 Ry
     electrostatic embedding   =      -0.09925672 Ry
     cavitation energy         =       0.05896976 Ry
     PV energy                 =      -0.05233974 Ry
     correction to one-el term =      -0.19508858 Ry

     convergence has been achieved in  33 iterations
     The global environment contribution to forces
     atom    1 type  2   force =     0.03586050    0.10473844   -0.08653907
     atom    2 type  1   force =     0.02202659    0.03580341   -0.03277887
     atom    3 type  1   force =     0.00514692    0.01371787   -0.01183174
     atom    4 type  2   force =    -0.04183547    0.04441340    0.06718568
     atom    5 type  1   force =    -0.00175111    0.01113708    0.00411111
     atom    6 type  1   force =    -0.00077750    0.00139158    0.00876861
     atom    7 type  2   force =    -0.03397850    0.11584985   -0.06906845
     atom    8 type  1   force =    -0.01864502    0.04615351   -0.02148246
     atom    9 type  1   force =     0.00431116    0.01588951   -0.00433717
     atom   10 type  2   force =    -0.02233597   -0.05797671   -0.09444990
     atom   11 type  1   force =    -0.01031597   -0.00496176   -0.00546178
     atom   12 type  1   force =    -0.01462358   -0.02830339   -0.04095337
     atom   13 type  2   force =     0.05631501   -0.09714361    0.02798109
     atom   14 type  1   force =     0.01207897   -0.00642198   -0.00109525
     atom   15 type  1   force =     0.02788559   -0.04169213    0.01706273
     atom   16 type  2   force =     0.02171408    0.06718471   -0.05403156
     atom   17 type  1   force =    -0.00174689    0.00949668   -0.00186014
     atom   18 type  1   force =     0.00014621    0.00397228   -0.01013117
     atom   19 type  2   force =    -0.04185219   -0.03662870   -0.10556701
     atom   20 type  1   force =    -0.00623919    0.00450383   -0.01634428
     atom   21 type  1   force =    -0.00687895   -0.00501287   -0.01350557
     atom   22 type  2   force =    -0.06977425    0.01811244    0.08062729
     atom   23 type  1   force =    -0.03074804    0.00442361    0.04097684
     atom   24 type  1   force =    -0.01289446   -0.00455419    0.00235315
     atom   25 type  2   force =     0.07615640   -0.00740559    0.02563350
     atom   26 type  1   force =     0.00796767   -0.00395184   -0.00182563
     atom   27 type  1   force =     0.00400031   -0.00087192    0.00595269
     atom   28 type  2   force =    -0.05934878   -0.04190478   -0.10401418
     atom   29 type  1   force =    -0.00408164   -0.00992149   -0.00970753
     atom   30 type  1   force =    -0.00385760    0.00051733   -0.01713235
 

     Forces acting on atoms (cartesian axes, Ry/au):

     atom    1 type  2   force =     0.00162297   -0.02233005    0.01662759
     atom    2 type  1   force =     0.01542522    0.01074716   -0.01348531
     atom    3 type  1   force =    -0.02156401    0.00681520    0.00830405
     atom    4 type  2   force =    -0.00883186   -0.01355765   -0.01431012
     atom    5 type  1   force =     0.00223451    0.02942646   -0.00030452
     atom    6 type  1   force =     0.00589626   -0.01376509    0.02331390
     atom    7 type  2   force =     0.01649994    0.00325800    0.01188979
     atom    8 type  1   force =    -0.00379586    0.02375052   -0.00596703
     atom    9 type  1   force =    -0.00579771   -0.01172033    0.00207729
     atom   10 type  2   force =    -0.00504657    0.00945677    0.02536421
     atom   11 type  1   force =     0.01702339    0.00322601    0.00149048
     atom   12 type  1   force =    -0.01080079   -0.01410547   -0.01545546
     atom   13 type  2   force =    -0.00062822    0.01956748   -0.01230546
     atom   14 type  1   force =    -0.01739251    0.00030319   -0.00014572
     atom   15 type  1   force =     0.01669654   -0.01689126    0.00590539
     atom   16 type  2   force =     0.01296803   -0.02422810    0.00692268
     atom   17 type  1   force =    -0.00949149    0.02117199    0.01373264
     atom   18 type  1   force =    -0.00415768   -0.00075055   -0.02657592
     atom   19 type  2   force =    -0.00733994    0.00197891    0.01607101
     atom   20 type  1   force =    -0.00999222    0.01314800   -0.02458511
     atom   21 type  1   force =     0.01993654   -0.01307756   -0.00513838
     atom   22 type  2   force =     0.00492642   -0.01163940   -0.02588002
     atom   23 type  1   force =    -0.01634563   -0.00226862    0.01679946
     atom   24 type  1   force =     0.01075187    0.00988043   -0.00275971
     atom   25 type  2   force =    -0.01711012    0.01977069   -0.00708962
     atom   26 type  1   force =     0.00979431   -0.02183141   -0.01378840
     atom   27 type  1   force =    -0.00039824   -0.00300029    0.02561542
     atom   28 type  2   force =     0.01033483    0.01312251    0.01906563
     atom   29 type  1   force =    -0.00342956   -0.02937553    0.00051863
     atom   30 type  1   force =    -0.00198840    0.01291801   -0.02590740
     The Martyna-Tuckerman correction term to forces
     atom    1 type  2   force =    -0.00028927   -0.00122608    0.00421976
     atom    2 type  1   force =     0.00000422   -0.00009484    0.00080257
     atom    3 type  1   force =    -0.00000999   -0.00017949    0.00064850
     atom    4 type  2   force =    -0.00092058   -0.00388482    0.00299457
     atom    5 type  1   force =    -0.00013379   -0.00049457    0.00059863
     atom    6 type  1   force =    -0.00016119   -0.00058558    0.00037260
     atom    7 type  2   force =     0.00049647   -0.00043431    0.00260311
     atom    8 type  1   force =     0.00005686    0.00221197    0.00038653
     atom    9 type  1   force =     0.00007406   -0.00026485    0.00035392
     atom   10 type  2   force =    -0.00006704   -0.00456887    0.00176096
     atom   11 type  1   force =    -0.00009466   -0.00072479    0.00038947
     atom   12 type  1   force =    -0.00002291   -0.00095763    0.00032518
     atom   13 type  2   force =    -0.00087324   -0.00197000    0.00128045
     atom   14 type  1   force =    -0.00011979   -0.00039658    0.00014343
     atom   15 type  1   force =    -0.00015146   -0.00056915    0.00006808
     atom   16 type  2   force =     0.00001412   -0.00363412    0.00044307
     atom   17 type  1   force =     0.00011756   -0.00039696    0.00021736
     atom   18 type  1   force =     0.00002917   -0.00077877    0.00008368
     atom   19 type  2   force =     0.00172152   -0.00092398    0.00376180
     atom   20 type  1   force =     0.00027622   -0.00016578    0.00055147
     atom   21 type  1   force =     0.00018395   -0.00009745    0.00063257
     atom   22 type  2   force =     0.00216890   -0.00193989    0.00231535
     atom   23 type  1   force =     0.00043925   -0.00031698    0.00052662
     atom   24 type  1   force =     0.00032200   -0.00023783    0.00048345
     atom   25 type  2   force =     0.00059101   -0.00219624    0.00117948
     atom   26 type  1   force =     0.00006839   -0.00047112    0.00023974
     atom   27 type  1   force =     0.00021937   -0.00038727    0.00020740
     atom   28 type  2   force =     0.00038742   -0.00036121    0.00378078
     atom   29 type  1   force =    -0.00000472   -0.00012450    0.00051912
     atom   30 type  1   force =     0.00002964   -0.00011384    0.00063950
     The non-local contrib.  to forces
     atom    1 type  2   force =    -0.49552821    1.72891526   -0.79193452
     atom    2 type  1   force =    -0.11023032   -0.12493652    0.12894655
     atom    3 type  1   force =     0.16695929   -0.08324743   -0.03611614
     atom    4 type  2   force =     0.76999651    1.06763357    1.52392364
     atom    5 type  1   force =    -0.03502102   -0.19453737   -0.00129913
     atom    6 type  1   force =    -0.07366964    0.07195923   -0.16749732
     atom    7 type  2   force =    -1.73215215    0.26124503   -0.75400116
     atom    8 type  1   force =     0.09560228   -0.17152256    0.07557843
     atom    9 type  1   force =     0.11446505    0.13308119    0.00916682
     atom   10 type  2   force =     0.94580203   -0.54320969   -1.58338132
     atom   11 type  1   force =    -0.17175763   -0.04622908    0.02550644
     atom   12 type  1   force =     0.06172573    0.11616579    0.16411194
     atom   13 type  2   force =    -0.51303178   -1.59302469    0.92123560
     atom   14 type  1   force =     0.17326945    0.03367067   -0.03536006
     atom   15 type  1   force =    -0.11504568    0.15914687   -0.07586354
     atom   16 type  2   force =    -1.16626669    1.40132547   -0.85391566
     atom   17 type  1   force =     0.08957487   -0.14678287   -0.09357577
     atom   18 type  1   force =     0.06350264   -0.00597599    0.18796963
     atom   19 type  2   force =     1.01976988    0.12882090   -1.71846380
     atom   20 type  1   force =     0.04257952   -0.10449915    0.16551163
     atom   21 type  1   force =    -0.17290834    0.07150101    0.02816395
     atom   22 type  2   force =     0.13583384    1.13988424    1.51139494
     atom   23 type  1   force =     0.11811455   -0.01698123   -0.17305657
     atom   24 type  1   force =    -0.12893032   -0.11928682   -0.01040226
     atom   25 type  2   force =     0.62425532   -1.70250645    0.82099262
     atom   26 type  1   force =    -0.06291751    0.15840462    0.09639425
     atom   27 type  1   force =     0.01035340    0.05034854   -0.18988569
     atom   28 type  2   force =    -0.21093093   -1.09794859   -1.74079498
     atom   29 type  1   force =     0.01143593    0.19688454    0.01190495
     atom   30 type  1   force =    -0.00285616   -0.06843737    0.18834509
     The ionic contribution  to forces
     atom    1 type  2   force =     7.24718489    2.67208828   -5.06390522
     atom    2 type  1   force =     2.84779395    3.02416020   -3.19317275
     atom    3 type  1   force =    -1.81016090    2.41437461   -0.59179096
     atom    4 type  2   force =     4.16573928   -5.77127176  -11.21150020
     atom    5 type  1   force =     1.40414552    2.69261341   -1.48415996
     atom    6 type  1   force =     2.36070826   -2.01113442    1.50489805
     atom    7 type  2   force =     0.31175649    9.33595598   -2.17971168
     atom    8 type  1   force =    -2.14377832    4.38359110   -1.85732031
     atom    9 type  1   force =    -2.41386464   -0.66208245   -0.94575693
     atom   10 type  2   force =    -7.07407861   -5.23773185   -4.65852097
     atom   11 type  1   force =     2.06454233   -0.13291543   -1.82435416
     atom   12 type  1   force =    -1.81267453   -2.93186224   -3.97281456
     atom   13 type  2   force =     8.39646926   -4.35624396    1.91861998
     atom   14 type  1   force =    -1.72417941   -1.79128038    1.38211697
     atom   15 type  1   force =     3.05714213   -3.84463424    1.83744118
     atom   16 type  2   force =    -1.25990575  -11.64665541    6.28981776
     atom   17 type  1   force =    -1.97319501    0.93721918    2.52831288
     atom   18 type  1   force =    -1.78215981   -1.59265962   -2.61337056
     atom   19 type  2   force =    -1.45932493    6.84772708   11.49026214
     atom   20 type  1   force =    -0.77388093    3.22690558   -1.53662792
     atom   21 type  1   force =     3.01854297   -0.18155103    1.08729582
     atom   22 type  2   force =    -7.56692714   -2.91924818    5.56078268
     atom   23 type  1   force =    -3.11581941    0.22036089    4.23268552
     atom   24 type  1   force =     1.11704449    1.83796572    1.67151394
     atom   25 type  2   force =   -11.01305025    4.95299130   -5.35365930
     atom   26 type  1   force =    -0.53780767   -2.27092663   -2.44797893
     atom   27 type  1   force =    -2.00660291   -0.55563559    2.78411001
     atom   28 type  2   force =     9.44432452    4.58933200    8.37203596
     atom   29 type  1   force =     1.30632082   -2.94809901    0.81158918
     atom   30 type  1   force =     1.72569531    1.71864688   -2.53683765
     The local contribution  to forces
     atom    1 type  2   force =    -6.78594704   -4.52622864    5.95465320
     atom    2 type  1   force =    -2.74448233   -2.92355808    3.08257107
     atom    3 type  1   force =     1.61618057   -2.33722431    0.64725270
     atom    4 type  2   force =    -4.90211323    4.65018599    9.60295913
     atom    5 type  1   force =    -1.36531864   -2.47866457    1.48030166
     atom    6 type  1   force =    -2.28051628    1.92522785   -1.32336675
     atom    7 type  2   force =     1.47007086   -9.70877625    3.01193935
     atom    8 type  1   force =     2.06265552   -4.23606202    1.79672864
     atom    9 type  1   force =     2.28890571    0.50228254    0.94250769
     atom   10 type  2   force =     6.14533767    5.85358426    6.35983367
     atom   11 type  1   force =    -1.86566689    0.18868229    1.80526832
     atom   12 type  1   force =     1.75448035    2.83147771    3.83373265
     atom   13 type  2   force =    -7.93984670    6.06859951   -2.88158165
     atom   14 type  1   force =     1.52124860    1.76535878   -1.34609642
     atom   15 type  1   force =    -2.95345207    3.71148710   -1.77294933
     atom   16 type  2   force =     2.41708896   10.15818109   -5.37553879
     atom   17 type  1   force =     1.87544264   -0.77773797   -2.41950562
     atom   18 type  1   force =     1.71400903    1.59531704    2.40872779
     atom   19 type  2   force =     0.47204441   -6.93638863   -9.65406606
     atom   20 type  1   force =     0.72695787   -3.11297148    1.36217849
     atom   21 type  1   force =    -2.81931754    0.10270770   -1.10786920
     atom   22 type  2   force =     7.50332745    1.75217384   -7.18117314
     atom   23 type  1   force =     3.01135473   -0.20913052   -4.08447904
     atom   24 type  1   force =    -0.96510416   -1.70338281   -1.66685363
     atom   25 type  2   force =    10.29462212   -3.22050235    4.49862405
     atom   26 type  1   force =     0.60216933    2.09573636    2.33923790
     atom   27 type  1   force =     1.99131708    0.50416936   -2.57491081
     atom   28 type  2   force =    -9.16441598   -3.43537260   -6.51208843
     atom   29 type  1   force =    -1.31741543    2.73250752   -0.81393174
     atom   30 type  1   force =    -1.72131444   -1.63707064    2.33893427
     The core correction contribution to forces
     atom    1 type  2   force =     0.00000000    0.00000000    0.00000000
     atom    2 type  1   force =     0.00000000    0.00000000    0.00000000
     atom    3 type  1   force =     0.00000000    0.00000000    0.00000000
     atom    4 type  2   force =     0.00000000    0.00000000    0.00000000
     atom    5 type  1   force =     0.00000000    0.00000000    0.00000000
     atom    6 type  1   force =     0.00000000    0.00000000    0.00000000
     atom    7 type  2   force =     0.00000000    0.00000000    0.00000000
     atom    8 type  1   force =     0.00000000    0.00000000    0.00000000
     atom    9 type  1   force =     0.00000000    0.00000000    0.00000000
     atom   10 type  2   force =     0.00000000    0.00000000    0.00000000
     atom   11 type  1   force =     0.00000000    0.00000000    0.00000000
     atom   12 type  1   force =     0.00000000    0.00000000    0.00000000
     atom   13 type  2   force =     0.00000000    0.00000000    0.00000000
     atom   14 type  1   force =     0.00000000    0.00000000    0.00000000
     atom   15 type  1   force =     0.00000000    0.00000000    0.00000000
     atom   16 type  2   force =     0.00000000    0.00000000    0.00000000
     atom   17 type  1   force =     0.00000000    0.00000000    0.00000000
     atom   18 type  1   force =     0.00000000    0.00000000    0.00000000
     atom   19 type  2   force =     0.00000000    0.00000000    0.00000000
     atom   20 type  1   force =     0.00000000    0.00000000    0.00000000
     atom   21 type  1   force =     0.00000000    0.00000000    0.00000000
     atom   22 type  2   force =     0.00000000    0.00000000    0.00000000
     atom   23 type  1   force =     0.00000000    0.00000000    0.00000000
     atom   24 type  1   force =     0.00000000    0.00000000    0.00000000
     atom   25 type  2   force =     0.00000000    0.00000000    0.00000000
     atom   26 type  1   force =     0.00000000    0.00000000    0.00000000
     atom   27 type  1   force =     0.00000000    0.00000000    0.00000000
     atom   28 type  2   force =     0.00000000    0.00000000    0.00000000
     atom   29 type  1   force =     0.00000000    0.00000000    0.00000000
     atom   30 type  1   force =     0.00000000    0.00000000    0.00000000
     The Hubbard contrib.    to forces
     atom    1 type  2   force =     0.00000000    0.00000000    0.00000000
     atom    2 type  1   force =     0.00000000    0.00000000    0.00000000
     atom    3 type  1   force =     0.00000000    0.00000000    0.00000000
     atom    4 type  2   force =     0.00000000    0.00000000    0.00000000
     atom    5 type  1   force =     0.00000000    0.00000000    0.00000000
     atom    6 type  1   force =     0.00000000    0.00000000    0.00000000
     atom    7 type  2   force =     0.00000000    0.00000000    0.00000000
     atom    8 type  1   force =     0.00000000    0.00000000    0.00000000
     atom    9 type  1   force =     0.00000000    0.00000000    0.00000000
     atom   10 type  2   force =     0.00000000    0.00000000    0.00000000
     atom   11 type  1   force =     0.00000000    0.00000000    0.00000000
     atom   12 type  1   force =     0.00000000    0.00000000    0.00000000
     atom   13 type  2   force =     0.00000000    0.00000000    0.00000000
     atom   14 type  1   force =     0.00000000    0.00000000    0.00000000
     atom   15 type  1   force =     0.00000000    0.00000000    0.00000000
     atom   16 type  2   force =     0.00000000    0.00000000    0.00000000
     atom   17 type  1   force =     0.00000000    0.00000000    0.00000000
     atom   18 type  1   force =     0.00000000    0.00000000    0.00000000
     atom   19 type  2   force =     0.00000000    0.00000000    0.00000000
     atom   20 type  1   force =     0.00000000    0.00000000    0.00000000
     atom   21 type  1   force =     0.00000000    0.00000000    0.00000000
     atom   22 type  2   force =     0.00000000    0.00000000    0.00000000
     atom   23 type  1   force =     0.00000000    0.00000000    0.00000000
     atom   24 type  1   force =     0.00000000    0.00000000    0.00000000
     atom   25 type  2   force =     0.00000000    0.00000000    0.00000000
     atom   26 type  1   force =     0.00000000    0.00000000    0.00000000
     atom   27 type  1   force =     0.00000000    0.00000000    0.00000000
     atom   28 type  2   force =     0.00000000    0.00000000    0.00000000
     atom   29 type  1   force =     0.00000000    0.00000000    0.00000000
     atom   30 type  1   force =     0.00000000    0.00000000    0.00000000
     The SCF correction term to forces
     atom    1 type  2   force =     0.00002755    0.00000760   -0.00001048
     atom    2 type  1   force =    -0.00000145   -0.00000211    0.00000220
     atom    3 type  1   force =     0.00000554   -0.00000115   -0.00000224
     atom    4 type  2   force =    -0.00001291   -0.00000912   -0.00001687
     atom    5 type  1   force =    -0.00000101   -0.00000260   -0.00000076
     atom    6 type  1   force =    -0.00000193    0.00000116   -0.00000521
     atom    7 type  2   force =    -0.00000777    0.00004261   -0.00001531
     atom    8 type  1   force =    -0.00000171    0.00000343   -0.00000178
     atom    9 type  1   force =    -0.00000359   -0.00000137   -0.00000096
     atom   10 type  2   force =    -0.00001921   -0.00001546   -0.00002216
     atom   11 type  1   force =     0.00000167   -0.00000030   -0.00000173
     atom   12 type  1   force =    -0.00000040   -0.00000080   -0.00000122
     atom   13 type  2   force =     0.00002467   -0.00002485    0.00001516
     atom   14 type  1   force =    -0.00000489   -0.00000242    0.00000169
     atom   15 type  1   force =     0.00000349   -0.00000480    0.00000235
     atom   16 type  2   force =     0.00000876   -0.00000493    0.00000393
     atom   17 type  1   force =     0.00000079   -0.00000117    0.00000001
     atom   18 type  1   force =     0.00000053   -0.00000059    0.00000078
     atom   19 type  2   force =    -0.00001317   -0.00000285    0.00000002
     atom   20 type  1   force =    -0.00000026   -0.00000010    0.00000159
     atom   21 type  1   force =    -0.00000009   -0.00000002    0.00000013
     atom   22 type  2   force =    -0.00001694    0.00000306    0.00002895
     atom   23 type  1   force =    -0.00000126    0.00000052    0.00000216
     atom   24 type  1   force =    -0.00000022    0.00000126    0.00000172
     atom   25 type  2   force =     0.00000073    0.00001492   -0.00000389
     atom   26 type  1   force =    -0.00000044    0.00000211    0.00000034
     atom   27 type  1   force =    -0.00000004    0.00000150   -0.00000210
     atom   28 type  2   force =     0.00000403    0.00000260    0.00000257
     atom   29 type  1   force =     0.00000093    0.00000231    0.00000072
     atom   30 type  1   force =     0.00000031    0.00000056   -0.00000019

     Total force =     0.135766     Total SCF correction =     0.000090

     Writing output data file /home/simplogic86/Work/QE1/tempdir/H2OCluster_fill_pockets.save/
 
     init_run     :     17.13s CPU     20.51s WALL (       1 calls)
     electrons    :    591.21s CPU    677.90s WALL (       1 calls)
     forces       :      3.89s CPU      5.07s WALL (       1 calls)

     Called by init_run:
     wfcinit      :      1.47s CPU      1.74s WALL (       1 calls)
     wfcinit:atom :      0.02s CPU      0.02s WALL (       1 calls)
     wfcinit:wfcr :      1.37s CPU      1.64s WALL (       1 calls)
     potinit      :      5.52s CPU      6.93s WALL (       1 calls)
     hinit0       :      7.35s CPU      8.06s WALL (       1 calls)

     Called by electrons:
     c_bands      :    101.61s CPU    125.15s WALL (      33 calls)
     sum_band     :     33.81s CPU     41.01s WALL (      33 calls)
     v_of_rho     :     23.70s CPU     28.67s WALL (      34 calls)
     v_h          :      2.93s CPU      3.48s WALL (      34 calls)
     v_xc         :     20.77s CPU     25.19s WALL (      34 calls)
     newd         :     14.58s CPU     18.15s WALL (      34 calls)
     mix_rho      :     13.45s CPU     15.76s WALL (      33 calls)

     Called by c_bands:
     init_us_2    :      0.68s CPU      0.79s WALL (      67 calls)
     cegterg      :     99.26s CPU    122.00s WALL (      33 calls)

     Called by sum_band:
     sum_band:wei :      0.00s CPU      0.00s WALL (      33 calls)
     sum_band:loo :     13.41s CPU     15.59s WALL (      33 calls)
     sum_band:buf :      0.00s CPU      0.00s WALL (      33 calls)
     sum_band:ini :      0.37s CPU      0.45s WALL (      33 calls)
     sum_band:cal :      1.09s CPU      1.16s WALL (      33 calls)
     sum_band:bec :      0.00s CPU      0.00s WALL (      33 calls)
     addusdens    :     17.53s CPU     21.48s WALL (      33 calls)
     addusd:skk   :      2.55s CPU      3.76s WALL (      66 calls)
     addusd:dgemm :      4.35s CPU      6.73s WALL (      66 calls)
     addusd:qvan2 :      8.81s CPU      9.12s WALL (      66 calls)

     Called by *egterg:
     cdiaghg      :      1.17s CPU      1.31s WALL (     163 calls)
     cegterg:over :      4.94s CPU      5.48s WALL (     130 calls)
     cegterg:upda :      2.10s CPU      2.25s WALL (     130 calls)
     cegterg:last :      4.44s CPU      4.68s WALL (      99 calls)
     h_psi        :     81.66s CPU    102.48s WALL (     164 calls)
     s_psi        :      3.43s CPU      3.84s WALL (     164 calls)
     g_psi        :      0.23s CPU      0.24s WALL (     130 calls)

     Called by h_psi:
     h_psi:calbec :      3.99s CPU      4.65s WALL (     164 calls)
     vloc_psi     :     73.91s CPU     93.81s WALL (     164 calls)
     add_vuspsi   :      3.37s CPU      3.58s WALL (     164 calls)

     General routines
     calbec       :      5.42s CPU      6.21s WALL (     201 calls)
     fft          :     23.05s CPU     28.20s WALL (     443 calls)
     ffts         :      1.10s CPU      1.16s WALL (      67 calls)
     fftw         :     73.93s CPU     94.67s WALL (   10616 calls)
     interpolate  :      2.32s CPU      2.52s WALL (      34 calls)
 
     Parallel routines
     fft_scatt_xy :     11.45s CPU     12.68s WALL (   11126 calls)
     fft_scatt_yz :     44.37s CPU     64.61s WALL (   11126 calls)
 
     Environ routines
 
     PWSCF        :  10m15.33s CPU  11m47.79s WALL

 
   This run was terminated on:  21:49: 8  23Sep2021            

=------------------------------------------------------------------------------=
   JOB DONE.
=------------------------------------------------------------------------------=
