
     Program PWSCF v.6.4.1 starts on 24Apr2019 at 12:57:23 

     This program is part of the open-source Quantum ESPRESSO suite
     for quantum simulation of materials; please cite
         "P. Giannozzi et al., J. Phys.:Condens. Matter 21 395502 (2009);
         "P. Giannozzi et al., J. Phys.:Condens. Matter 29 465901 (2017);
          URL http://www.quantum-espresso.org", 
     in publications or presentations arising from this work. More details at
     http://www.quantum-espresso.org/quote

     Parallel version (MPI), running on     1 processors

     MPI processes distributed on     1 nodes
     Reading input from pw.in

     Current dimensions of program PWSCF are:
     Max number of different atomic species (ntypx) = 10
     Max number of k-points (npk) =  40000
     Max angular momentum in pseudopotentials (lmaxx) =  3
               file H.pbe-rrkjus.UPF: wavefunction(s)  1S renormalized
               file O.pbe-rrkjus.UPF: wavefunction(s)  2S renormalized

     gamma-point specific algorithms are used

     Subspace diagonalization in iterative solution of the eigenvalue problem:
     a serial algorithm will be used

 
     G-vector sticks info
     --------------------
     sticks:   dense  smooth     PW     G-vecs:    dense   smooth      PW
     Sum        9549    3809    949               701475   177509   22119
 


     bravais-lattice index     =            1
     lattice parameter (alat)  =      20.0000  a.u.
     unit-cell volume          =    8000.0000 (a.u.)^3
     number of atoms/cell      =            3
     number of atomic types    =            2
     number of electrons       =         8.00
     number of Kohn-Sham states=            4
     kinetic-energy cutoff     =      30.0000  Ry
     charge density cutoff     =     300.0000  Ry
     convergence threshold     =      1.0E-08
     mixing beta               =       0.3000
     number of iterations used =            8  plain     mixing
     Exchange-correlation      = SLA PW PBE PBE ( 1  4  3  4 0 0)
 

     Environ Module
     ==============

     Plese cite
         O. Andreussi, I. Dabo and N. Marzari, J. Chem. Phys. 136, 064102 (2012)         
     in publications or presentations arising from this work.

     compensation onset threshold      =               0.1000E+03 
     switching function adopted        =                     SCCS 
     density limit for vacuum region   =               0.5000E-02 
     density limit for bulk solvent    =               0.1000E-03 

     Electrostatic Setup
     -------------------
     electrostatic problem to solve    = generalized              
     numerical solver adopted          = cg                       
     type of auxiliary density adopted = none                     
     type of core tool for poisson     = fft                      
     type of core tool for s(r) deriv  = analytic                 



     celldm(1)=  20.000000  celldm(2)=   0.000000  celldm(3)=   0.000000
     celldm(4)=   0.000000  celldm(5)=   0.000000  celldm(6)=   0.000000

     crystal axes: (cart. coord. in units of alat)
               a(1) = (   1.000000   0.000000   0.000000 )  
               a(2) = (   0.000000   1.000000   0.000000 )  
               a(3) = (   0.000000   0.000000   1.000000 )  

     reciprocal axes: (cart. coord. in units 2 pi/alat)
               b(1) = (  1.000000  0.000000  0.000000 )  
               b(2) = (  0.000000  1.000000  0.000000 )  
               b(3) = (  0.000000  0.000000  1.000000 )  


     PseudoPot. # 1 for H  read from file:
     /home/fnattino/Programs/quantumespresso/q-e-qe-6.4.1-develop/Environ/tests/../..//pseudo/H.pbe-rrkjus.UPF
     MD5 check sum: 2d52a7f45632fd764c17cc6affed14c8
     Pseudo is Ultrasoft, Zval =  1.0
     Generated by new atomic code, or converted to UPF format
     Using radial grid of 1061 points,  2 beta functions with: 
                l(1) =   0
                l(2) =   0
     Q(r) pseudized with 0 coefficients 


     PseudoPot. # 2 for O  read from file:
     /home/fnattino/Programs/quantumespresso/q-e-qe-6.4.1-develop/Environ/tests/../..//pseudo/O.pbe-rrkjus.UPF
     MD5 check sum: fadcf19ee70a498d3030e2e79cf929a4
     Pseudo is Ultrasoft, Zval =  6.0
     Generated by new atomic code, or converted to UPF format
     Using radial grid of 1269 points,  4 beta functions with: 
                l(1) =   0
                l(2) =   0
                l(3) =   1
                l(4) =   1
     Q(r) pseudized with 0 coefficients 


     atomic species   valence    mass     pseudopotential
        H              1.00     1.00000     H ( 1.00)
        O              6.00    16.00000     O ( 1.00)

     No symmetry found



   Cartesian axes

     site n.     atom                  positions (alat units)
         1           O   tau(   1) = (   0.5895000   0.6025000   0.5750000  )
         2           H   tau(   2) = (   0.6725000   0.5610000   0.5750000  )
         3           H   tau(   3) = (   0.5280000   0.5330000   0.5750000  )

     number of k points=     1
                       cart. coord. in units 2pi/alat
        k(    1) = (   0.0000000   0.0000000   0.0000000), wk =   2.0000000

     Dense  grid:   350738 G-vectors     FFT dimensions: ( 120, 120, 120)

     Smooth grid:    88755 G-vectors     FFT dimensions: (  72,  72,  72)

     Estimated max dynamical RAM per process >     548.70 MB

     Initial potential from superposition of free atoms

     starting charge    7.80759, renormalised to    8.00000

     negative rho (up, down):  7.936E-04 0.000E+00
     Starting wfcs are    6 randomized atomic wfcs

     total cpu time spent up to now is        3.6 secs

     Self-consistent Calculation

     iteration #  1     ecut=    30.00 Ry     beta= 0.30
     Davidson diagonalization with overlap
     ethr =  1.00E-02,  avg # of iterations =  2.0

     negative rho (up, down):  5.577E-04 0.000E+00

     add environment contribution to local potential
     polarization accuracy = 6.7E-16, # of iterations =  50

     total cpu time spent up to now is       10.4 secs

     total energy              =     -34.29318214 Ry
     Harris-Foulkes estimate   =     -34.58698941 Ry
     estimated scf accuracy    <       0.68459185 Ry
     electrostatic embedding   =       0.00000000 Ry
     correction to one-el term =       0.00000000 Ry

     iteration #  2     ecut=    30.00 Ry     beta= 0.30
     Davidson diagonalization with overlap
     ethr =  8.56E-03,  avg # of iterations =  1.0

     negative rho (up, down):  6.476E-04 0.000E+00

     add environment contribution to local potential
     polarization accuracy = 4.5E-16, # of iterations =  55

     total cpu time spent up to now is       17.6 secs

     total energy              =     -34.26791766 Ry
     Harris-Foulkes estimate   =     -34.15137885 Ry
     estimated scf accuracy    <       0.15629265 Ry
     electrostatic embedding   =      -0.00604545 Ry
     correction to one-el term =      -0.19021004 Ry

     iteration #  3     ecut=    30.00 Ry     beta= 0.30
     Davidson diagonalization with overlap
     ethr =  1.95E-03,  avg # of iterations =  2.0

     negative rho (up, down):  1.771E-03 0.000E+00

     add environment contribution to local potential
     polarization accuracy = 4.9E-16, # of iterations =  55

     total cpu time spent up to now is       25.0 secs

     total energy              =     -34.26305860 Ry
     Harris-Foulkes estimate   =     -34.16858275 Ry
     estimated scf accuracy    <       0.04456257 Ry
     electrostatic embedding   =      -0.00328734 Ry
     correction to one-el term =      -0.11534635 Ry

     iteration #  4     ecut=    30.00 Ry     beta= 0.30
     Davidson diagonalization with overlap
     ethr =  5.57E-04,  avg # of iterations =  2.0

     negative rho (up, down):  1.704E-03 0.000E+00

     add environment contribution to local potential
     polarization accuracy = 3.6E-16, # of iterations =  57

     total cpu time spent up to now is       32.4 secs

     total energy              =     -34.26628517 Ry
     Harris-Foulkes estimate   =     -34.20753982 Ry
     estimated scf accuracy    <       0.02112495 Ry
     electrostatic embedding   =      -0.00083763 Ry
     correction to one-el term =      -0.06734891 Ry

     iteration #  5     ecut=    30.00 Ry     beta= 0.30
     Davidson diagonalization with overlap
     ethr =  2.64E-04,  avg # of iterations =  2.0

     negative rho (up, down):  1.254E-03 0.000E+00

     add environment contribution to local potential
     polarization accuracy = 6.5E-16, # of iterations =  58

     total cpu time spent up to now is       39.9 secs

     total energy              =     -34.27713318 Ry
     Harris-Foulkes estimate   =     -34.12671484 Ry
     estimated scf accuracy    <       0.00186870 Ry
     electrostatic embedding   =       0.00096741 Ry
     correction to one-el term =      -0.15146486 Ry

     iteration #  6     ecut=    30.00 Ry     beta= 0.30
     Davidson diagonalization with overlap
     ethr =  2.34E-05,  avg # of iterations =  4.0

     negative rho (up, down):  9.882E-04 0.000E+00

     add environment contribution to local potential
     polarization accuracy = 3.7E-16, # of iterations =  60

     total cpu time spent up to now is       47.7 secs

     total energy              =     -34.30486295 Ry
     Harris-Foulkes estimate   =     -34.01770048 Ry
     estimated scf accuracy    <       0.00249830 Ry
     electrostatic embedding   =       0.00299360 Ry
     correction to one-el term =      -0.29018815 Ry

     iteration #  7     ecut=    30.00 Ry     beta= 0.30
     Davidson diagonalization with overlap
     ethr =  2.34E-05,  avg # of iterations =  9.0

     negative rho (up, down):  9.160E-04 0.000E+00

     add environment contribution to local potential
     polarization accuracy = 7.2E-16, # of iterations =  59

     total cpu time spent up to now is       55.8 secs

     total energy              =     -34.52921948 Ry
     Harris-Foulkes estimate   =     -34.88737636 Ry
     estimated scf accuracy    <       0.00700614 Ry
     electrostatic embedding   =      -0.01593470 Ry
     correction to one-el term =       0.37381060 Ry

     iteration #  8     ecut=    30.00 Ry     beta= 0.30
     Davidson diagonalization with overlap
     ethr =  2.34E-05,  avg # of iterations =  4.0

     negative rho (up, down):  6.560E-04 0.000E+00

     add environment contribution to local potential
     polarization accuracy = 4.5E-16, # of iterations =  56

     total cpu time spent up to now is       63.1 secs

     total energy              =     -34.40283228 Ry
     Harris-Foulkes estimate   =     -34.74540275 Ry
     estimated scf accuracy    <       0.00484522 Ry
     electrostatic embedding   =      -0.01236522 Ry
     correction to one-el term =       0.35428595 Ry

     iteration #  9     ecut=    30.00 Ry     beta= 0.30
     Davidson diagonalization with overlap
     ethr =  2.34E-05,  avg # of iterations =  4.0

     negative rho (up, down):  4.671E-04 0.000E+00

     add environment contribution to local potential
     polarization accuracy = 7.1E-16, # of iterations =  56

     total cpu time spent up to now is       70.3 secs

     total energy              =     -34.27012414 Ry
     Harris-Foulkes estimate   =     -34.37354461 Ry
     estimated scf accuracy    <       0.00091561 Ry
     electrostatic embedding   =      -0.00376424 Ry
     correction to one-el term =       0.10715574 Ry

     iteration # 10     ecut=    30.00 Ry     beta= 0.30
     Davidson diagonalization with overlap
     ethr =  1.14E-05,  avg # of iterations =  2.0

     negative rho (up, down):  3.531E-04 0.000E+00

     add environment contribution to local potential
     polarization accuracy = 5.1E-16, # of iterations =  55

     total cpu time spent up to now is       77.6 secs

     total energy              =     -34.26971999 Ry
     Harris-Foulkes estimate   =     -34.35816679 Ry
     estimated scf accuracy    <       0.00082245 Ry
     electrostatic embedding   =      -0.00341064 Ry
     correction to one-el term =       0.09185707 Ry

     iteration # 11     ecut=    30.00 Ry     beta= 0.30
     Davidson diagonalization with overlap
     ethr =  1.03E-05,  avg # of iterations =  2.0

     negative rho (up, down):  2.672E-04 0.000E+00

     add environment contribution to local potential
     polarization accuracy = 3.2E-16, # of iterations =  58

     total cpu time spent up to now is       85.3 secs

     total energy              =     -34.27011276 Ry
     Harris-Foulkes estimate   =     -34.37594340 Ry
     estimated scf accuracy    <       0.00053486 Ry
     electrostatic embedding   =      -0.00379604 Ry
     correction to one-el term =       0.10961332 Ry

     iteration # 12     ecut=    30.00 Ry     beta= 0.30
     Davidson diagonalization with overlap
     ethr =  6.69E-06,  avg # of iterations =  2.0

     negative rho (up, down):  2.489E-04 0.000E+00

     add environment contribution to local potential
     polarization accuracy = 4.2E-16, # of iterations =  58

     total cpu time spent up to now is       92.7 secs

     total energy              =     -34.27094261 Ry
     Harris-Foulkes estimate   =     -34.39221068 Ry
     estimated scf accuracy    <       0.00046629 Ry
     electrostatic embedding   =      -0.00415728 Ry
     correction to one-el term =       0.12544537 Ry

     iteration # 13     ecut=    30.00 Ry     beta= 0.30
     Davidson diagonalization with overlap
     ethr =  5.83E-06,  avg # of iterations =  2.0

     negative rho (up, down):  2.158E-04 0.000E+00

     add environment contribution to local potential
     polarization accuracy = 2.2E-16, # of iterations =  59

     total cpu time spent up to now is      100.3 secs

     total energy              =     -34.27106071 Ry
     Harris-Foulkes estimate   =     -34.38440536 Ry
     estimated scf accuracy    <       0.00048382 Ry
     electrostatic embedding   =      -0.00405239 Ry
     correction to one-el term =       0.11745177 Ry

     iteration # 14     ecut=    30.00 Ry     beta= 0.30
     Davidson diagonalization with overlap
     ethr =  5.83E-06,  avg # of iterations =  4.0

     negative rho (up, down):  2.682E-04 0.000E+00

     add environment contribution to local potential
     polarization accuracy = 2.4E-16, # of iterations =  59

     total cpu time spent up to now is      108.0 secs

     total energy              =     -34.27659950 Ry
     Harris-Foulkes estimate   =     -34.43785198 Ry
     estimated scf accuracy    <       0.00119998 Ry
     electrostatic embedding   =      -0.00513767 Ry
     correction to one-el term =       0.16643157 Ry

     iteration # 15     ecut=    30.00 Ry     beta= 0.30
     Davidson diagonalization with overlap
     ethr =  5.83E-06,  avg # of iterations =  1.0

     negative rho (up, down):  1.623E-03 0.000E+00

     add environment contribution to local potential
     polarization accuracy = 7.4E-16, # of iterations =  59

     total cpu time spent up to now is      115.5 secs

     total energy              =     -34.27804683 Ry
     Harris-Foulkes estimate   =     -34.43801606 Ry
     estimated scf accuracy    <       0.00129037 Ry
     electrostatic embedding   =      -0.00515786 Ry
     correction to one-el term =       0.16614127 Ry

     iteration # 16     ecut=    30.00 Ry     beta= 0.30
     Davidson diagonalization with overlap
     ethr =  5.83E-06,  avg # of iterations =  3.0

     negative rho (up, down):  6.013E-04 0.000E+00

     add environment contribution to local potential
     polarization accuracy = 7.6E-16, # of iterations =  60

     total cpu time spent up to now is      123.1 secs

     total energy              =     -34.27196976 Ry
     Harris-Foulkes estimate   =     -34.33149245 Ry
     estimated scf accuracy    <       0.00246787 Ry
     electrostatic embedding   =      -0.00341604 Ry
     correction to one-el term =       0.06298104 Ry

     iteration # 17     ecut=    30.00 Ry     beta= 0.30
     Davidson diagonalization with overlap
     ethr =  5.83E-06,  avg # of iterations =  1.0

     negative rho (up, down):  3.232E-04 0.000E+00

     add environment contribution to local potential
     polarization accuracy = 8.2E-16, # of iterations =  57

     total cpu time spent up to now is      130.4 secs

     total energy              =     -34.27066425 Ry
     Harris-Foulkes estimate   =     -34.33222579 Ry
     estimated scf accuracy    <       0.00261200 Ry
     electrostatic embedding   =      -0.00350070 Ry
     correction to one-el term =       0.06349734 Ry

     iteration # 18     ecut=    30.00 Ry     beta= 0.30
     Davidson diagonalization with overlap
     ethr =  5.83E-06,  avg # of iterations =  3.0

     negative rho (up, down):  2.305E-04 0.000E+00

     add environment contribution to local potential
     polarization accuracy = 7.7E-16, # of iterations =  58

     total cpu time spent up to now is      138.1 secs

     total energy              =     -34.27173901 Ry
     Harris-Foulkes estimate   =     -34.38941310 Ry
     estimated scf accuracy    <       0.00007195 Ry
     electrostatic embedding   =      -0.00465345 Ry
     correction to one-el term =       0.12235418 Ry

     iteration # 19     ecut=    30.00 Ry     beta= 0.30
     Davidson diagonalization with overlap
     ethr =  8.99E-07,  avg # of iterations =  4.0

     negative rho (up, down):  2.075E-04 0.000E+00

     add environment contribution to local potential
     polarization accuracy = 6.3E-16, # of iterations =  58

     total cpu time spent up to now is      145.7 secs

     total energy              =     -34.27381937 Ry
     Harris-Foulkes estimate   =     -34.42562729 Ry
     estimated scf accuracy    <       0.00009889 Ry
     electrostatic embedding   =      -0.00588960 Ry
     correction to one-el term =       0.15766451 Ry

     iteration # 20     ecut=    30.00 Ry     beta= 0.30
     Davidson diagonalization with overlap
     ethr =  8.99E-07,  avg # of iterations =  3.0

     negative rho (up, down):  1.555E-04 0.000E+00

     add environment contribution to local potential
     polarization accuracy = 5.6E-16, # of iterations =  58

     total cpu time spent up to now is      153.2 secs

     total energy              =     -34.27263104 Ry
     Harris-Foulkes estimate   =     -34.42321400 Ry
     estimated scf accuracy    <       0.00001086 Ry
     electrostatic embedding   =      -0.00564963 Ry
     correction to one-el term =       0.15623653 Ry

     iteration # 21     ecut=    30.00 Ry     beta= 0.30
     Davidson diagonalization with overlap
     ethr =  1.36E-07,  avg # of iterations =  3.0

     negative rho (up, down):  1.400E-04 0.000E+00

     add environment contribution to local potential
     polarization accuracy = 5.3E-16, # of iterations =  58

     total cpu time spent up to now is      160.7 secs

     total energy              =     -34.27196766 Ry
     Harris-Foulkes estimate   =     -34.41800587 Ry
     estimated scf accuracy    <       0.00002228 Ry
     electrostatic embedding   =      -0.00538967 Ry
     correction to one-el term =       0.15142853 Ry

     iteration # 22     ecut=    30.00 Ry     beta= 0.30
     Davidson diagonalization with overlap
     ethr =  1.36E-07,  avg # of iterations =  3.0

     negative rho (up, down):  1.489E-04 0.000E+00

     add environment contribution to local potential
     polarization accuracy = 6.1E-16, # of iterations =  58

     total cpu time spent up to now is      168.5 secs

     total energy              =     -34.27202624 Ry
     Harris-Foulkes estimate   =     -34.41610800 Ry
     estimated scf accuracy    <       0.00003500 Ry
     electrostatic embedding   =      -0.00537913 Ry
     correction to one-el term =       0.14946219 Ry

     iteration # 23     ecut=    30.00 Ry     beta= 0.30
     Davidson diagonalization with overlap
     ethr =  1.36E-07,  avg # of iterations =  4.0

     negative rho (up, down):  1.686E-04 0.000E+00

     add environment contribution to local potential
     polarization accuracy = 7.4E-16, # of iterations =  58

     total cpu time spent up to now is      176.2 secs

     total energy              =     -34.27173765 Ry
     Harris-Foulkes estimate   =     -34.42129063 Ry
     estimated scf accuracy    <       0.00001511 Ry
     electrostatic embedding   =      -0.00536732 Ry
     correction to one-el term =       0.15491609 Ry

     iteration # 24     ecut=    30.00 Ry     beta= 0.30
     Davidson diagonalization with overlap
     ethr =  1.36E-07,  avg # of iterations =  4.0

     negative rho (up, down):  1.718E-04 0.000E+00

     add environment contribution to local potential
     polarization accuracy = 6.9E-16, # of iterations =  58

     total cpu time spent up to now is      183.9 secs

     total energy              =     -34.27006926 Ry
     Harris-Foulkes estimate   =     -34.42098308 Ry
     estimated scf accuracy    <       0.00000050 Ry
     electrostatic embedding   =      -0.00501877 Ry
     correction to one-el term =       0.15593298 Ry

     iteration # 25     ecut=    30.00 Ry     beta= 0.30
     Davidson diagonalization with overlap
     ethr =  6.22E-09,  avg # of iterations =  4.0

     negative rho (up, down):  1.971E-04 0.000E+00

     add environment contribution to local potential
     polarization accuracy = 6.6E-16, # of iterations =  58

     total cpu time spent up to now is      191.4 secs

     total energy              =     -34.27029421 Ry
     Harris-Foulkes estimate   =     -34.42231820 Ry
     estimated scf accuracy    <       0.00000142 Ry
     electrostatic embedding   =      -0.00505383 Ry
     correction to one-el term =       0.15707774 Ry

     iteration # 26     ecut=    30.00 Ry     beta= 0.30
     Davidson diagonalization with overlap
     ethr =  6.22E-09,  avg # of iterations =  3.0

     negative rho (up, down):  2.154E-04 0.000E+00

     add environment contribution to local potential
     polarization accuracy = 9.0E-16, # of iterations =  57

     total cpu time spent up to now is      198.9 secs

     total energy              =     -34.27011465 Ry
     Harris-Foulkes estimate   =     -34.42221883 Ry
     estimated scf accuracy    <       0.00000069 Ry
     electrostatic embedding   =      -0.00500734 Ry
     correction to one-el term =       0.15711131 Ry

     iteration # 27     ecut=    30.00 Ry     beta= 0.30
     Davidson diagonalization with overlap
     ethr =  6.22E-09,  avg # of iterations =  4.0

     negative rho (up, down):  2.141E-04 0.000E+00

     add environment contribution to local potential
     polarization accuracy = 5.7E-16, # of iterations =  58

     total cpu time spent up to now is      206.3 secs

     total energy              =     -34.26955276 Ry
     Harris-Foulkes estimate   =     -34.41859594 Ry
     estimated scf accuracy    <       0.00000041 Ry
     electrostatic embedding   =      -0.00484816 Ry
     correction to one-el term =       0.15389135 Ry

     iteration # 28     ecut=    30.00 Ry     beta= 0.30
     Davidson diagonalization with overlap
     ethr =  5.11E-09,  avg # of iterations =  2.0

     negative rho (up, down):  2.165E-04 0.000E+00

     add environment contribution to local potential
     polarization accuracy = 5.7E-16, # of iterations =  58

     total cpu time spent up to now is      213.7 secs

     total energy              =     -34.26966077 Ry
     Harris-Foulkes estimate   =     -34.41826276 Ry
     estimated scf accuracy    <       0.00000024 Ry
     electrostatic embedding   =      -0.00485513 Ry
     correction to one-el term =       0.15345709 Ry

     iteration # 29     ecut=    30.00 Ry     beta= 0.30
     Davidson diagonalization with overlap
     ethr =  2.95E-09,  avg # of iterations =  2.0

     negative rho (up, down):  2.216E-04 0.000E+00

     add environment contribution to local potential
     polarization accuracy = 5.6E-16, # of iterations =  58

     total cpu time spent up to now is      221.1 secs

     total energy              =     -34.26977501 Ry
     Harris-Foulkes estimate   =     -34.41841517 Ry
     estimated scf accuracy    <       0.00000002 Ry
     electrostatic embedding   =      -0.00487290 Ry
     correction to one-el term =       0.15351306 Ry

     iteration # 30     ecut=    30.00 Ry     beta= 0.30
     Davidson diagonalization with overlap
     ethr =  2.10E-10,  avg # of iterations =  3.0

     negative rho (up, down):  2.193E-04 0.000E+00

     the potential shift due to the Gaussian-smeared nuclei is    -0.0214 ev

     total cpu time spent up to now is      222.5 secs

     End of self-consistent calculation

          k = 0.0000 0.0000 0.0000 ( 11060 PWs)   bands (ev):

   -25.1863 -13.0571  -9.2238  -7.1963

     highest occupied level (ev):    -7.1963

!    total energy              =     -34.26981505 Ry
     Harris-Foulkes estimate   =     -34.41821226 Ry
     estimated scf accuracy    <          2.2E-09 Ry

     The total energy is the sum of the following terms:

     one-electron contribution =     -64.00600068 Ry
     hartree contribution      =      33.43204853 Ry
     xc contribution           =      -8.40161787 Ry
     ewald contribution        =       4.55735774 Ry
     electrostatic embedding   =      -0.00487329 Ry
     correction to one-el term =       0.15327052 Ry

     convergence has been achieved in  30 iterations

     Forces acting on atoms (cartesian axes, Ry/au):

     atom    1 type  2   force =     0.01008050   -0.05234483   -0.09006519
     atom    2 type  1   force =    -0.02596231    0.02207947    0.04503613
     atom    3 type  1   force =     0.01588181    0.03026536    0.04502907

     Total force =     0.131678     Total SCF correction =     0.000102

     Writing output data file pwscf.save/
 
     init_run     :      2.93s CPU      3.29s WALL (       1 calls)
     electrons    :    179.77s CPU    218.93s WALL (       1 calls)
     forces       :      0.33s CPU      0.42s WALL (       1 calls)

     Called by init_run:
     wfcinit      :      0.03s CPU      0.04s WALL (       1 calls)
     potinit      :      1.22s CPU      1.31s WALL (       1 calls)
     hinit0       :      1.41s CPU      1.49s WALL (       1 calls)

     Called by electrons:
     c_bands      :      2.68s CPU      2.66s WALL (      30 calls)
     sum_band     :      5.26s CPU      6.94s WALL (      30 calls)
     v_of_rho     :     11.84s CPU     13.05s WALL (      31 calls)
     newd         :      3.87s CPU      5.82s WALL (      31 calls)
     mix_rho      :      2.03s CPU      2.04s WALL (      30 calls)

     Called by c_bands:
     init_us_2    :      0.12s CPU      0.12s WALL (      61 calls)
     regterg      :      2.50s CPU      2.52s WALL (      30 calls)

     Called by sum_band:
     sum_band:bec :      0.00s CPU      0.00s WALL (      30 calls)
     addusdens    :      3.82s CPU      5.49s WALL (      30 calls)

     Called by *egterg:
     h_psi        :      2.37s CPU      2.39s WALL (     120 calls)
     s_psi        :      0.02s CPU      0.02s WALL (     120 calls)
     g_psi        :      0.01s CPU      0.02s WALL (      89 calls)
     rdiaghg      :      0.00s CPU      0.01s WALL (     119 calls)

     Called by h_psi:
     h_psi:pot    :      2.37s CPU      2.38s WALL (     120 calls)
     h_psi:calbec :      0.01s CPU      0.03s WALL (     120 calls)
     vloc_psi     :      2.33s CPU      2.33s WALL (     120 calls)
     add_vuspsi   :      0.02s CPU      0.02s WALL (     120 calls)

     General routines
     calbec       :      0.02s CPU      0.04s WALL (     154 calls)
     fft          :     76.56s CPU     76.40s WALL (    4206 calls)
     ffts         :      0.18s CPU      0.18s WALL (      61 calls)
     fftw         :      2.07s CPU      2.10s WALL (     492 calls)
     interpolate  :      0.85s CPU      0.95s WALL (      31 calls)
 
     Parallel routines
 
     Environ routines
     calc_eelect  :      0.10s CPU      0.09s WALL (      60 calls)
     calc_velect  :    131.61s CPU    162.84s WALL (      58 calls)
     dielectric   :      5.89s CPU      6.63s WALL (      32 calls)
     calc_felect  :      0.04s CPU      0.04s WALL (       1 calls)
 
     PWSCF        :   3m 3.37s CPU   3m43.01s WALL

 
   This run was terminated on:  13: 1: 6  24Apr2019            

=------------------------------------------------------------------------------=
   JOB DONE.
=------------------------------------------------------------------------------=

%%%% IONS %%%%%%%%%%%%%%%%%%%%%%%%%%%%%%%%%%%%%%%%%%%%%%%%%%%%%%%%%%%%%%%%%%%%%%
 number of ions             =          3
 ionic center of charge     =      0.5921875     0.5886250     0.5750000
 total ionic charge         =     -8.0000000
 ionic dipole               =      0.0000000     0.0000000     0.0000000
 ionic quadrupole (pc)      =     -4.2453875    -2.0049500     0.0000000
 ionic quadrupole (gauss)   =     -5.2453875    -3.0049500    -1.0000000
 ion   1 type =  2 coordinates =     11.7900000    12.0500000    11.5000000
 ion   2 type =  1 coordinates =     13.4500000    11.2200000    11.5000000
 ion   3 type =  1 coordinates =     10.5600000    10.6600000    11.5000000

%%%% SYSTEM %%%%%%%%%%%%%%%%%%%%%%%%%%%%%%%%%%%%%%%%%%%%%%%%%%%%%%%%%%%%%%%%%%%%
 system is built from all present ionic types
 system defined dimension   =  0 
 system defined axis        =  3 
 system center              =      0.5921875     0.5886250     0.5750000 
 system width               =      0.0849363 

%%%% ELECTRONS %%%%%%%%%%%%%%%%%%%%%%%%%%%%%%%%%%%%%%%%%%%%%%%%%%%%%%%%%%%%%%%%%
 number of electrons        =          8
 total electronic charge    =      8.0000000

%%%% BOUNDARY %%%%%%%%%%%%%%%%%%%%%%%%%%%%%%%%%%%%%%%%%%%%%%%%%%%%%%%%%%%%%%%%%%
 boundary label             = solvent              
 boundary mode              = electronic           
 boundary is built as a function of a smooth density
 function type              =  1 
 using the optimal SCCS function with parameters 
 rhomax                     =      0.0050000 
 rhomin                     =      0.0001000 
 volume of the QM region    =    479.9702285 
 surface of the QM region   =    281.4538971 

%%%% DIELECTRIC %%%%%%%%%%%%%%%%%%%%%%%%%%%%%%%%%%%%%%%%%%%%%%%%%%%%%%%%%%%%%%%%%
 dielectric build in the presence of dielectric regions
 environment bulk permitt.  =      1.0000000 
 number of dielec. regions  =    1 

%%%% FUNCTIONS %%%%%%%%%%%%%%%%%%%%%%%%%%%%%%%%%%%%%%%%%%%%%%%%%%%%%%%%%%%%%%%%%
 number of functions        =          1
 Scaled ERFC function, type = 4 
 number                     =   1 
 dimensionality             = 2 
 axis                       = 3 
 width                      =     2.000000 
 spread                     =     0.500000 
 max value                  =   100.000000 
 dielectric flags
 need gradient              =  F 
 need factor depend. sqrt   =  T 
 total dielectric charge    =      0.0000000

%%%% DENSITY %%%%%%%%%%%%%%%%%%%%%%%%%%%%%%%%%%%%%%%%%%%%%%%%%%%%%%%%%%%%%%%%%%%
 density label              = vreference                                                                      
 integral of density        =      0.000000000    

%%%% DENSITY %%%%%%%%%%%%%%%%%%%%%%%%%%%%%%%%%%%%%%%%%%%%%%%%%%%%%%%%%%%%%%%%%%%
 density label              = velectrostatic                                                                  
 integral of density        =      0.000000000    

%%%% CHARGES %%%%%%%%%%%%%%%%%%%%%%%%%%%%%%%%%%%%%%%%%%%%%%%%%%%%%%%%%%%%%%%%%%%
 total number of charges    =         11
 total charge               =     -0.0000000

%%%% DENSITY %%%%%%%%%%%%%%%%%%%%%%%%%%%%%%%%%%%%%%%%%%%%%%%%%%%%%%%%%%%%%%%%%%%
 density label              = vsoftcavity                                                                     
 integral of density        =      0.000000000    

%%%% ELECTRONS %%%%%%%%%%%%%%%%%%%%%%%%%%%%%%%%%%%%%%%%%%%%%%%%%%%%%%%%%%%%%%%%%
 number of electrons        =          8
 total electronic charge    =      8.0000000

%%%% BOUNDARY %%%%%%%%%%%%%%%%%%%%%%%%%%%%%%%%%%%%%%%%%%%%%%%%%%%%%%%%%%%%%%%%%%
 boundary label             = solvent              
 boundary mode              = electronic           
 boundary is built as a function of a smooth density
 function type              =  1 
 using the optimal SCCS function with parameters 
 rhomax                     =      0.0050000 
 rhomin                     =      0.0001000 
 volume of the QM region    =    344.7712290 
 surface of the QM region   =    229.9416849 

%%%% DIELECTRIC %%%%%%%%%%%%%%%%%%%%%%%%%%%%%%%%%%%%%%%%%%%%%%%%%%%%%%%%%%%%%%%%%
 dielectric build in the presence of dielectric regions
 environment bulk permitt.  =      1.0000000 
 number of dielec. regions  =    1 

%%%% FUNCTIONS %%%%%%%%%%%%%%%%%%%%%%%%%%%%%%%%%%%%%%%%%%%%%%%%%%%%%%%%%%%%%%%%%
 number of functions        =          1
 Scaled ERFC function, type = 4 
 number                     =   1 
 dimensionality             = 2 
 axis                       = 3 
 width                      =     2.000000 
 spread                     =     0.500000 
 max value                  =   100.000000 
 dielectric flags
 need gradient              =  F 
 need factor depend. sqrt   =  T 
 total dielectric charge    =      0.0000000

%%%% DENSITY %%%%%%%%%%%%%%%%%%%%%%%%%%%%%%%%%%%%%%%%%%%%%%%%%%%%%%%%%%%%%%%%%%%
 density label              = vreference                                                                      
 integral of density        =     0.5938295123E-12

%%%% COMPUTE ELECTROSTATIC POTENTIAL %%%%%%%%%%%%%%%%%%%%%%%%%%%%%%%%%%%%%%%%%%%
 Iteration #          1
  pAp =    28.6696111073661       rzold =    28.5898192661373       alpha = 
  0.997216849543931     
 delta_qm =   0.319116E-02 delta_en =   0.175971E+02 tol =   0.100000E-14
 Iteration #          2
  pAp =    2.63892809329307       rzold =   0.388728146578214       alpha = 
  0.147305319749401     
 delta_qm =   0.920112E-03 delta_en =   0.146293E+01 tol =   0.100000E-14
 Iteration #          3
  pAp =   0.140269963877252       rzold =   2.642595679065851E-002  alpha = 
  0.188393552405728     
 delta_qm =   0.420713E-03 delta_en =   0.305855E+00 tol =   0.100000E-14
 Iteration #          4
  pAp =   1.832622561011525E-002  rzold =   4.079958981599716E-003  alpha = 
  0.222629529309503     
 delta_qm =   0.377350E-03 delta_en =   0.246055E+00 tol =   0.100000E-14
 Iteration #          5
  pAp =   4.504961369749839E-003  rzold =   1.058243409575364E-003  alpha = 
  0.234906211778266     
 delta_qm =   0.322377E-03 delta_en =   0.179586E+00 tol =   0.100000E-14
 Iteration #          6
  pAp =   9.987297573365419E-004  rzold =   4.346925193181406E-004  alpha = 
  0.435245386577244     
 delta_qm =   0.275500E-03 delta_en =   0.131155E+00 tol =   0.100000E-14
 Iteration #          7
  pAp =   5.304810110699285E-004  rzold =   4.080855451927211E-004  alpha = 
  0.769274557763439     
 delta_qm =   0.298278E-03 delta_en =   0.153740E+00 tol =   0.100000E-14
 Iteration #          8
  pAp =   1.408914116761364E-003  rzold =   7.196432987706706E-004  alpha = 
  0.510778684242938     
 delta_qm =   0.277726E-03 delta_en =   0.133283E+00 tol =   0.100000E-14
 Iteration #          9
  pAp =   3.150270003720007E-003  rzold =   1.003670325148291E-003  alpha = 
  0.318598191254433     
 delta_qm =   0.186002E-03 delta_en =   0.597832E-01 tol =   0.100000E-14
 Iteration #         10
  pAp =   8.517070011548560E-004  rzold =   3.510373589975532E-004  alpha = 
  0.412157418597676     
 delta_qm =   0.157341E-03 delta_en =   0.427786E-01 tol =   0.100000E-14
 Iteration #         11
  pAp =   3.835914243479748E-004  rzold =   1.597986163142861E-004  alpha = 
  0.416585476554671     
 delta_qm =   0.130164E-03 delta_en =   0.292770E-01 tol =   0.100000E-14
 Iteration #         12
  pAp =   1.534198745197683E-004  rzold =   9.277182615043118E-005  alpha = 
  0.604692361017916     
 delta_qm =   0.125498E-03 delta_en =   0.272156E-01 tol =   0.100000E-14
 Iteration #         13
  pAp =   2.367606464278629E-004  rzold =   1.002261618378771E-004  alpha = 
  0.423322724236667     
 delta_qm =   0.115499E-03 delta_en =   0.230514E-01 tol =   0.100000E-14
 Iteration #         14
  pAp =   3.338046936062423E-004  rzold =   1.086130756079076E-004  alpha = 
  0.325379114459152     
 delta_qm =   0.919696E-04 delta_en =   0.146161E-01 tol =   0.100000E-14
 Iteration #         15
  pAp =   1.278314085971373E-004  rzold =   5.349687660774105E-005  alpha = 
  0.418495557506820     
 delta_qm =   0.710325E-04 delta_en =   0.871883E-02 tol =   0.100000E-14
 Iteration #         16
  pAp =   6.356625882450043E-005  rzold =   2.576607086005107E-005  alpha = 
  0.405341942982493     
 delta_qm =   0.556151E-04 delta_en =   0.534478E-02 tol =   0.100000E-14
 Iteration #         17
  pAp =   2.176621334879127E-005  rzold =   1.098596036465973E-005  alpha = 
  0.504725382803886     
 delta_qm =   0.400114E-04 delta_en =   0.276638E-02 tol =   0.100000E-14
 Iteration #         18
  pAp =   1.567084558079620E-005  rzold =   6.689615033748354E-006  alpha = 
  0.426882837895240     
 delta_qm =   0.248598E-04 delta_en =   0.106792E-02 tol =   0.100000E-14
 Iteration #         19
  pAp =   8.069838619216076E-006  rzold =   3.524177430613172E-006  alpha = 
  0.436709777841322     
 delta_qm =   0.155589E-04 delta_en =   0.418313E-03 tol =   0.100000E-14
 Iteration #         20
  pAp =   3.427578238631807E-006  rzold =   1.283206170896508E-006  alpha = 
  0.374376916165954     
 delta_qm =   0.121224E-04 delta_en =   0.253934E-03 tol =   0.100000E-14
 Iteration #         21
  pAp =   2.540442006492762E-006  rzold =   7.304721017972655E-007  alpha = 
  0.287537404880865     
 delta_qm =   0.965980E-05 delta_en =   0.161243E-03 tol =   0.100000E-14
 Iteration #         22
  pAp =   1.054153937488296E-006  rzold =   3.637691374738527E-007  alpha = 
  0.345081609561309     
 delta_qm =   0.709488E-05 delta_en =   0.869830E-04 tol =   0.100000E-14
 Iteration #         23
  pAp =   4.971590598105469E-007  rzold =   2.177884281916649E-007  alpha = 
  0.438065894393351     
 delta_qm =   0.408611E-05 delta_en =   0.288511E-04 tol =   0.100000E-14
 Iteration #         24
  pAp =   1.642103007001437E-007  rzold =   8.014836534387805E-008  alpha = 
  0.488083664679678     
 delta_qm =   0.206714E-05 delta_en =   0.738387E-05 tol =   0.100000E-14
 Iteration #         25
  pAp =   7.932436748728912E-008  rzold =   2.713406977563603E-008  alpha = 
  0.342064748010553     
 delta_qm =   0.136174E-05 delta_en =   0.320430E-05 tol =   0.100000E-14
 Iteration #         26
  pAp =   2.209510190409829E-008  rzold =   8.559349229752945E-009  alpha = 
  0.387386727922957     
 delta_qm =   0.921642E-06 delta_en =   0.146780E-05 tol =   0.100000E-14
 Iteration #         27
  pAp =   5.953708475670457E-009  rzold =   2.760100262204602E-009  alpha = 
  0.463593451624919     
 delta_qm =   0.592065E-06 delta_en =   0.605734E-06 tol =   0.100000E-14
 Iteration #         28
  pAp =   3.467646818315347E-009  rzold =   1.394840892698526E-009  alpha = 
  0.402244220873730     
 delta_qm =   0.428916E-06 delta_en =   0.317898E-06 tol =   0.100000E-14
 Iteration #         29
  pAp =   1.763824612879746E-009  rzold =   8.631129133916711E-010  alpha = 
  0.489341687993848     
 delta_qm =   0.299030E-06 delta_en =   0.154516E-06 tol =   0.100000E-14
 Iteration #         30
  pAp =   6.334526777533689E-010  rzold =   4.008455958656885E-010  alpha = 
  0.632794855785195     
 delta_qm =   0.263701E-06 delta_en =   0.120162E-06 tol =   0.100000E-14
 Iteration #         31
  pAp =   2.231160548445551E-010  rzold =   1.753220987255648E-010  alpha = 
  0.785788807747213     
 delta_qm =   0.183895E-06 delta_en =   0.584365E-07 tol =   0.100000E-14
 Iteration #         32
  pAp =   1.841536278939119E-010  rzold =   1.019133751075012E-010  alpha = 
  0.553414973536182     
 delta_qm =   0.122131E-06 delta_en =   0.257749E-07 tol =   0.100000E-14
 Iteration #         33
  pAp =   1.428988027663957E-010  rzold =   6.149933317179468E-011  alpha = 
  0.430369828026697     
 delta_qm =   0.679464E-07 delta_en =   0.797767E-08 tol =   0.100000E-14
 Iteration #         34
  pAp =   6.266524190878987E-011  rzold =   2.305297147119284E-011  alpha = 
  0.367874929849417     
 delta_qm =   0.396050E-07 delta_en =   0.271046E-08 tol =   0.100000E-14
 Iteration #         35
  pAp =   1.279187547063485E-011  rzold =   5.340143205984847E-012  alpha = 
  0.417463664201839     
 delta_qm =   0.249659E-07 delta_en =   0.107706E-08 tol =   0.100000E-14
 Iteration #         36
  pAp =   1.122826473186133E-011  rzold =   2.733039028681350E-012  alpha = 
  0.243407070811759     
 delta_qm =   0.183956E-07 delta_en =   0.584750E-09 tol =   0.100000E-14
 Iteration #         37
  pAp =   4.913143244188985E-012  rzold =   1.205149403249538E-012  alpha = 
  0.245290915276066     
 delta_qm =   0.122653E-07 delta_en =   0.259956E-09 tol =   0.100000E-14
 Iteration #         38
  pAp =   1.227412869348011E-012  rzold =   5.288210255925158E-013  alpha = 
  0.430842008258737     
 delta_qm =   0.569617E-08 delta_en =   0.560674E-10 tol =   0.100000E-14
 Iteration #         39
  pAp =   3.001866915252570E-013  rzold =   1.209128812154041E-013  alpha = 
  0.402792277702394     
 delta_qm =   0.328426E-08 delta_en =   0.186389E-10 tol =   0.100000E-14
 Iteration #         40
  pAp =   1.920011198262387E-013  rzold =   5.731108648393212E-014  alpha = 
  0.298493501161862     
 delta_qm =   0.194831E-08 delta_en =   0.655932E-11 tol =   0.100000E-14
 Iteration #         41
  pAp =   2.588368209739291E-014  rzold =   1.158398790429129E-014  alpha = 
  0.447540186156824     
 delta_qm =   0.110671E-08 delta_en =   0.211647E-11 tol =   0.100000E-14
 Iteration #         42
  pAp =   5.648175531076263E-015  rzold =   2.827084667696375E-015  alpha = 
  0.500530596498242     
 delta_qm =   0.583483E-09 delta_en =   0.588301E-12 tol =   0.100000E-14
 Iteration #         43
  pAp =   1.494489266099187E-015  rzold =   7.968363985342111E-016  alpha = 
  0.533183085760167     
 delta_qm =   0.280567E-09 delta_en =   0.136024E-12 tol =   0.100000E-14
 Iteration #         44
  pAp =   7.253355163259628E-016  rzold =   2.805003002023987E-016  alpha = 
  0.386717999999800     
 delta_qm =   0.170018E-09 delta_en =   0.499498E-13 tol =   0.100000E-14
 Iteration #         45
  pAp =   2.659903950246487E-016  rzold =   1.115948522874343E-016  alpha = 
  0.419544669186619     
 delta_qm =   0.107835E-09 delta_en =   0.200937E-13 tol =   0.100000E-14
 Iteration #         46
  pAp =   8.728388505069467E-017  rzold =   3.448474489256335E-017  alpha = 
  0.395087190178743     
 delta_qm =   0.751048E-10 delta_en =   0.974719E-14 tol =   0.100000E-14
 Iteration #         47
  pAp =   6.613157731152533E-017  rzold =   2.056629213861102E-017  alpha = 
  0.310990497651819     
 delta_qm =   0.544979E-10 delta_en =   0.513219E-14 tol =   0.100000E-14
 Iteration #         48
  pAp =   3.538964224511063E-017  rzold =   1.238433559624325E-017  alpha = 
  0.349942378916087     
 delta_qm =   0.402624E-10 delta_en =   0.280119E-14 tol =   0.100000E-14
 Iteration #         49
  pAp =   1.278052361737204E-017  rzold =   5.514847838295068E-018  alpha = 
  0.431504060662973     
 delta_qm =   0.263800E-10 delta_en =   0.120252E-14 tol =   0.100000E-14
 Iteration #         50
  pAp =   8.312313506626554E-018  rzold =   2.814262293635054E-018  alpha = 
  0.338565465726423     
 delta_qm =   0.197573E-10 delta_en =   0.674528E-15 tol =   0.100000E-14
 Charges are converged, EXIT

%%%% DENSITY %%%%%%%%%%%%%%%%%%%%%%%%%%%%%%%%%%%%%%%%%%%%%%%%%%%%%%%%%%%%%%%%%%%
 density label              = velectrostatic                                                                  
 integral of density        =     0.2831644384E-12

%%%% CHARGES %%%%%%%%%%%%%%%%%%%%%%%%%%%%%%%%%%%%%%%%%%%%%%%%%%%%%%%%%%%%%%%%%%%
 total number of charges    =         11
 total charge               =     -0.0000000

%%%% DENSITY %%%%%%%%%%%%%%%%%%%%%%%%%%%%%%%%%%%%%%%%%%%%%%%%%%%%%%%%%%%%%%%%%%%
 density label              = vsoftcavity                                                                     
 integral of density        =      10.53396508    

%%%% ELECTRONS %%%%%%%%%%%%%%%%%%%%%%%%%%%%%%%%%%%%%%%%%%%%%%%%%%%%%%%%%%%%%%%%%
 number of electrons        =          8
 total electronic charge    =      8.0000000

%%%% BOUNDARY %%%%%%%%%%%%%%%%%%%%%%%%%%%%%%%%%%%%%%%%%%%%%%%%%%%%%%%%%%%%%%%%%%
 boundary label             = solvent              
 boundary mode              = electronic           
 boundary is built as a function of a smooth density
 function type              =  1 
 using the optimal SCCS function with parameters 
 rhomax                     =      0.0050000 
 rhomin                     =      0.0001000 
 volume of the QM region    =    253.4483276 
 surface of the QM region   =    191.7697244 

%%%% DIELECTRIC %%%%%%%%%%%%%%%%%%%%%%%%%%%%%%%%%%%%%%%%%%%%%%%%%%%%%%%%%%%%%%%%%
 dielectric build in the presence of dielectric regions
 environment bulk permitt.  =      1.0000000 
 number of dielec. regions  =    1 

%%%% FUNCTIONS %%%%%%%%%%%%%%%%%%%%%%%%%%%%%%%%%%%%%%%%%%%%%%%%%%%%%%%%%%%%%%%%%
 number of functions        =          1
 Scaled ERFC function, type = 4 
 number                     =   1 
 dimensionality             = 2 
 axis                       = 3 
 width                      =     2.000000 
 spread                     =     0.500000 
 max value                  =   100.000000 
 dielectric flags
 need gradient              =  F 
 need factor depend. sqrt   =  T 
 total dielectric charge    =      0.0447916

%%%% DENSITY %%%%%%%%%%%%%%%%%%%%%%%%%%%%%%%%%%%%%%%%%%%%%%%%%%%%%%%%%%%%%%%%%%%
 density label              = vreference                                                                      
 integral of density        =    -0.3981013050E-12

%%%% COMPUTE ELECTROSTATIC POTENTIAL %%%%%%%%%%%%%%%%%%%%%%%%%%%%%%%%%%%%%%%%%%%
 Warning: bad guess with residual norm =   0.121618E+02, reset to no guess
 Iteration #          1
  pAp =    28.0156208083933       rzold =    27.9700557401359       alpha = 
  0.998373583488690     
 delta_qm =   0.264939E-02 delta_en =   0.121293E+02 tol =   0.100000E-14
 Iteration #          2
  pAp =    1.64704348351264       rzold =   0.235830868643104       alpha = 
  0.143184360949687     
 delta_qm =   0.772201E-03 delta_en =   0.103040E+01 tol =   0.100000E-14
 Iteration #          3
  pAp =   8.011730966011579E-002  rzold =   1.451666782059408E-002  alpha = 
  0.181192652151933     
 delta_qm =   0.361855E-03 delta_en =   0.226263E+00 tol =   0.100000E-14
 Iteration #          4
  pAp =   8.532700593016494E-003  rzold =   1.953854666523069E-003  alpha = 
  0.228984322750312     
 delta_qm =   0.303076E-03 delta_en =   0.158726E+00 tol =   0.100000E-14
 Iteration #          5
  pAp =   2.186747671003744E-003  rzold =   5.341753047091716E-004  alpha = 
  0.244278437696462     
 delta_qm =   0.268569E-03 delta_en =   0.124639E+00 tol =   0.100000E-14
 Iteration #          6
  pAp =   5.613971905248680E-004  rzold =   2.850693240346751E-004  alpha = 
  0.507785448245929     
 delta_qm =   0.231977E-03 delta_en =   0.929895E-01 tol =   0.100000E-14
 Iteration #          7
  pAp =   4.485022231910736E-004  rzold =   3.288712219708258E-004  alpha = 
  0.733265533514910     
 delta_qm =   0.256062E-03 delta_en =   0.113301E+00 tol =   0.100000E-14
 Iteration #          8
  pAp =   1.273378395998393E-003  rzold =   5.806957469397263E-004  alpha = 
  0.456027641716374     
 delta_qm =   0.251540E-03 delta_en =   0.109335E+00 tol =   0.100000E-14
 Iteration #          9
  pAp =   1.899718034631355E-003  rzold =   6.099990684391884E-004  alpha = 
  0.321099793400424     
 delta_qm =   0.193738E-03 delta_en =   0.648594E-01 tol =   0.100000E-14
 Iteration #         10
  pAp =   5.716467472809158E-004  rzold =   2.556370369793233E-004  alpha = 
  0.447194072554915     
 delta_qm =   0.179772E-03 delta_en =   0.558452E-01 tol =   0.100000E-14
 Iteration #         11
  pAp =   2.863230335506308E-004  rzold =   1.407290733816210E-004  alpha = 
  0.491504548678707     
 delta_qm =   0.176267E-03 delta_en =   0.536893E-01 tol =   0.100000E-14
 Iteration #         12
  pAp =   1.770745692750012E-004  rzold =   1.268057369961570E-004  alpha = 
  0.716114897330201     
 delta_qm =   0.173312E-03 delta_en =   0.519038E-01 tol =   0.100000E-14
 Iteration #         13
  pAp =   3.685817997548484E-004  rzold =   1.710517071518347E-004  alpha = 
  0.464080720387184     
 delta_qm =   0.161551E-03 delta_en =   0.450986E-01 tol =   0.100000E-14
 Iteration #         14
  pAp =   6.340623554622784E-004  rzold =   2.075602114398647E-004  alpha = 
  0.327349841307860     
 delta_qm =   0.143150E-03 delta_en =   0.354100E-01 tol =   0.100000E-14
 Iteration #         15
  pAp =   2.671526250926183E-004  rzold =   1.153487171870636E-004  alpha = 
  0.431770854383608     
 delta_qm =   0.134579E-03 delta_en =   0.312967E-01 tol =   0.100000E-14
 Iteration #         16
  pAp =   1.285607140920822E-004  rzold =   6.221274991168582E-005  alpha = 
  0.483917270925593     
 delta_qm =   0.114690E-03 delta_en =   0.227298E-01 tol =   0.100000E-14
 Iteration #         17
  pAp =   8.341623271691241E-005  rzold =   4.630787157221853E-005  alpha = 
  0.555142207505012     
 delta_qm =   0.869944E-04 delta_en =   0.130775E-01 tol =   0.100000E-14
 Iteration #         18
  pAp =   7.176918799801989E-005  rzold =   3.371531521622776E-005  alpha = 
  0.469774232601851     
 delta_qm =   0.530780E-04 delta_en =   0.486825E-02 tol =   0.100000E-14
 Iteration #         19
  pAp =   4.273440005449894E-005  rzold =   1.786728311621436E-005  alpha = 
  0.418100712620940     
 delta_qm =   0.341378E-04 delta_en =   0.201379E-02 tol =   0.100000E-14
 Iteration #         20
  pAp =   1.253582537819763E-005  rzold =   5.252604972763993E-006  alpha = 
  0.419007509621134     
 delta_qm =   0.274366E-04 delta_en =   0.130078E-02 tol =   0.100000E-14
 Iteration #         21
  pAp =   7.741399266131183E-006  rzold =   2.690317114200191E-006  alpha = 
  0.347523363892416     
 delta_qm =   0.217738E-04 delta_en =   0.819246E-03 tol =   0.100000E-14
 Iteration #         22
  pAp =   4.666644443763139E-006  rzold =   1.783297808754620E-006  alpha = 
  0.382137064489230     
 delta_qm =   0.160829E-04 delta_en =   0.446964E-03 tol =   0.100000E-14
 Iteration #         23
  pAp =   4.631446332472082E-006  rzold =   1.578271536371921E-006  alpha = 
  0.340772929895854     
 delta_qm =   0.111293E-04 delta_en =   0.214034E-03 tol =   0.100000E-14
 Iteration #         24
  pAp =   1.160140700935580E-006  rzold =   5.946648062351480E-007  alpha = 
  0.512579901520211     
 delta_qm =   0.690510E-05 delta_en =   0.823918E-04 tol =   0.100000E-14
 Iteration #         25
  pAp =   5.017341347746287E-007  rzold =   2.067918514859803E-007  alpha = 
  0.412154240968413     
 delta_qm =   0.552806E-05 delta_en =   0.528067E-04 tol =   0.100000E-14
 Iteration #         26
  pAp =   2.222985418832930E-007  rzold =   9.761348115654548E-008  alpha = 
  0.439109857984551     
 delta_qm =   0.412395E-05 delta_en =   0.293880E-04 tol =   0.100000E-14
 Iteration #         27
  pAp =   1.010006293835838E-007  rzold =   5.473664345180683E-008  alpha = 
  0.541943587736727     
 delta_qm =   0.291053E-05 delta_en =   0.146382E-04 tol =   0.100000E-14
 Iteration #         28
  pAp =   7.573514222287620E-008  rzold =   3.698249126430621E-008  alpha = 
  0.488313485376085     
 delta_qm =   0.220974E-05 delta_en =   0.843771E-05 tol =   0.100000E-14
 Iteration #         29
  pAp =   6.925882115806615E-008  rzold =   2.650080338898139E-008  alpha = 
  0.382634340952755     
 delta_qm =   0.164850E-05 delta_en =   0.469592E-05 tol =   0.100000E-14
 Iteration #         30
  pAp =   1.643054845785405E-008  rzold =   9.096028904788289E-009  alpha = 
  0.553604703343926     
 delta_qm =   0.121273E-05 delta_en =   0.254138E-05 tol =   0.100000E-14
 Iteration #         31
  pAp =   4.831804675025674E-009  rzold =   2.925783065199653E-009  alpha = 
  0.605525939473972     
 delta_qm =   0.672804E-06 delta_en =   0.782206E-06 tol =   0.100000E-14
 Iteration #         32
  pAp =   2.038824060358855E-009  rzold =   1.125871754047634E-009  alpha = 
  0.552216238731982     
 delta_qm =   0.343446E-06 delta_en =   0.203826E-06 tol =   0.100000E-14
 Iteration #         33
  pAp =   1.419607275593659E-009  rzold =   5.218133835181034E-010  alpha = 
  0.367575872911675     
 delta_qm =   0.184593E-06 delta_en =   0.588812E-07 tol =   0.100000E-14
 Iteration #         34
  pAp =   4.360973969719412E-010  rzold =   1.560384637003676E-010  alpha = 
  0.357806455126370     
 delta_qm =   0.109018E-06 delta_en =   0.205373E-07 tol =   0.100000E-14
 Iteration #         35
  pAp =   8.241497110317038E-011  rzold =   3.502660817433243E-011  alpha = 
  0.425002978287582     
 delta_qm =   0.662245E-07 delta_en =   0.757847E-08 tol =   0.100000E-14
 Iteration #         36
  pAp =   4.912422991152522E-011  rzold =   1.283017590269417E-011  alpha = 
  0.261178158432241     
 delta_qm =   0.477801E-07 delta_en =   0.394492E-08 tol =   0.100000E-14
 Iteration #         37
  pAp =   2.567254456703997E-011  rzold =   6.550693919624376E-012  alpha = 
  0.255163406280909     
 delta_qm =   0.317738E-07 delta_en =   0.174455E-08 tol =   0.100000E-14
 Iteration #         38
  pAp =   9.373659039927350E-012  rzold =   3.521578376934979E-012  alpha = 
  0.375688763793810     
 delta_qm =   0.153959E-07 delta_en =   0.409594E-09 tol =   0.100000E-14
 Iteration #         39
  pAp =   1.361690406546329E-012  rzold =   7.581642145881095E-013  alpha = 
  0.556781637693292     
 delta_qm =   0.903976E-08 delta_en =   0.141207E-09 tol =   0.100000E-14
 Iteration #         40
  pAp =   9.338779947735664E-013  rzold =   3.008553889723498E-013  alpha = 
  0.322157059761641     
 delta_qm =   0.707581E-08 delta_en =   0.865158E-10 tol =   0.100000E-14
 Iteration #         41
  pAp =   3.042893367187176E-013  rzold =   1.411500543123166E-013  alpha = 
  0.463867895715302     
 delta_qm =   0.492627E-08 delta_en =   0.419353E-10 tol =   0.100000E-14
 Iteration #         42
  pAp =   1.104648150384512E-013  rzold =   6.824430285664303E-014  alpha = 
  0.617792215855231     
 delta_qm =   0.344357E-08 delta_en =   0.204909E-10 tol =   0.100000E-14
 Iteration #         43
  pAp =   5.123774386216269E-014  rzold =   3.554434950678719E-014  alpha = 
  0.693714180749388     
 delta_qm =   0.264778E-08 delta_en =   0.121145E-10 tol =   0.100000E-14
 Iteration #         44
  pAp =   2.870103206603859E-014  rzold =   1.695266645299245E-014  alpha = 
  0.590664001698121     
 delta_qm =   0.179754E-08 delta_en =   0.558342E-11 tol =   0.100000E-14
 Iteration #         45
  pAp =   2.245086536719571E-014  rzold =   8.659260203892081E-015  alpha = 
  0.385698282104735     
 delta_qm =   0.126039E-08 delta_en =   0.274509E-11 tol =   0.100000E-14
 Iteration #         46
  pAp =   8.441900480683411E-015  rzold =   4.012015410591574E-015  alpha = 
  0.475250261451410     
 delta_qm =   0.762992E-09 delta_en =   0.100597E-11 tol =   0.100000E-14
 Iteration #         47
  pAp =   4.437649181015723E-015  rzold =   1.730944202858295E-015  alpha = 
  0.390058819940810     
 delta_qm =   0.477006E-09 delta_en =   0.393180E-12 tol =   0.100000E-14
 Iteration #         48
  pAp =   3.692938983684402E-015  rzold =   9.807202359279464E-016  alpha = 
  0.265566325428289     
 delta_qm =   0.352555E-09 delta_en =   0.214782E-12 tol =   0.100000E-14
 Iteration #         49
  pAp =   1.132379256125278E-015  rzold =   4.358549602999478E-016  alpha = 
  0.384901929227612     
 delta_qm =   0.228606E-09 delta_en =   0.903061E-13 tol =   0.100000E-14
 Iteration #         50
  pAp =   3.068902528096215E-016  rzold =   1.371379171535806E-016  alpha = 
  0.446863059018866     
 delta_qm =   0.161856E-09 delta_en =   0.452691E-13 tol =   0.100000E-14
 Iteration #         51
  pAp =   1.463835597080604E-016  rzold =   7.424920376823827E-017  alpha = 
  0.507223652139058     
 delta_qm =   0.109981E-09 delta_en =   0.209014E-13 tol =   0.100000E-14
 Iteration #         52
  pAp =   1.042000224514438E-016  rzold =   3.667629382717261E-017  alpha = 
  0.351979711369673     
 delta_qm =   0.832123E-10 delta_en =   0.119652E-13 tol =   0.100000E-14
 Iteration #         53
  pAp =   1.215740620340944E-016  rzold =   3.521003338517323E-017  alpha = 
  0.289617972748981     
 delta_qm =   0.554969E-10 delta_en =   0.532207E-14 tol =   0.100000E-14
 Iteration #         54
  pAp =   1.249782891871103E-017  rzold =   6.372560929545219E-018  alpha = 
  0.509893435971474     
 delta_qm =   0.310945E-10 delta_en =   0.167074E-14 tol =   0.100000E-14
 Iteration #         55
  pAp =   4.086326732053091E-018  rzold =   1.901163695961530E-018  alpha = 
  0.465250044997339     
 delta_qm =   0.162010E-10 delta_en =   0.453551E-15 tol =   0.100000E-14
 Charges are converged, EXIT

%%%% DENSITY %%%%%%%%%%%%%%%%%%%%%%%%%%%%%%%%%%%%%%%%%%%%%%%%%%%%%%%%%%%%%%%%%%%
 density label              = velectrostatic                                                                  
 integral of density        =     0.2283605404E-12

%%%% CHARGES %%%%%%%%%%%%%%%%%%%%%%%%%%%%%%%%%%%%%%%%%%%%%%%%%%%%%%%%%%%%%%%%%%%
 total number of charges    =         11
 total charge               =     -0.0000000

%%%% DENSITY %%%%%%%%%%%%%%%%%%%%%%%%%%%%%%%%%%%%%%%%%%%%%%%%%%%%%%%%%%%%%%%%%%%
 density label              = vsoftcavity                                                                     
 integral of density        =      3.952051661    

%%%% ELECTRONS %%%%%%%%%%%%%%%%%%%%%%%%%%%%%%%%%%%%%%%%%%%%%%%%%%%%%%%%%%%%%%%%%
 number of electrons        =          8
 total electronic charge    =      8.0000000

%%%% BOUNDARY %%%%%%%%%%%%%%%%%%%%%%%%%%%%%%%%%%%%%%%%%%%%%%%%%%%%%%%%%%%%%%%%%%
 boundary label             = solvent              
 boundary mode              = electronic           
 boundary is built as a function of a smooth density
 function type              =  1 
 using the optimal SCCS function with parameters 
 rhomax                     =      0.0050000 
 rhomin                     =      0.0001000 
 volume of the QM region    =    236.6467463 
 surface of the QM region   =    184.4070021 

%%%% DIELECTRIC %%%%%%%%%%%%%%%%%%%%%%%%%%%%%%%%%%%%%%%%%%%%%%%%%%%%%%%%%%%%%%%%%
 dielectric build in the presence of dielectric regions
 environment bulk permitt.  =      1.0000000 
 number of dielec. regions  =    1 

%%%% FUNCTIONS %%%%%%%%%%%%%%%%%%%%%%%%%%%%%%%%%%%%%%%%%%%%%%%%%%%%%%%%%%%%%%%%%
 number of functions        =          1
 Scaled ERFC function, type = 4 
 number                     =   1 
 dimensionality             = 2 
 axis                       = 3 
 width                      =     2.000000 
 spread                     =     0.500000 
 max value                  =   100.000000 
 dielectric flags
 need gradient              =  F 
 need factor depend. sqrt   =  T 
 total dielectric charge    =      0.0389373

%%%% DENSITY %%%%%%%%%%%%%%%%%%%%%%%%%%%%%%%%%%%%%%%%%%%%%%%%%%%%%%%%%%%%%%%%%%%
 density label              = vreference                                                                      
 integral of density        =    -0.6276460833E-13

%%%% COMPUTE ELECTROSTATIC POTENTIAL %%%%%%%%%%%%%%%%%%%%%%%%%%%%%%%%%%%%%%%%%%%
 Warning: bad guess with residual norm =   0.724163E+01, reset to no guess
 Iteration #          1
  pAp =    28.8346672834598       rzold =    28.8106347076093       alpha = 
  0.999166538818910     
 delta_qm =   0.204569E-02 delta_en =   0.723143E+01 tol =   0.100000E-14
 Iteration #          2
  pAp =   0.878701748912722       rzold =   0.125049310451702       alpha = 
  0.142311439127592     
 delta_qm =   0.719315E-03 delta_en =   0.894091E+00 tol =   0.100000E-14
 Iteration #          3
  pAp =   4.119839231770264E-002  rzold =   7.640591287013885E-003  alpha = 
  0.185458481682810     
 delta_qm =   0.402718E-03 delta_en =   0.280250E+00 tol =   0.100000E-14
 Iteration #          4
  pAp =   4.543739581731304E-003  rzold =   1.193917026822084E-003  alpha = 
  0.262760883485132     
 delta_qm =   0.318384E-03 delta_en =   0.175164E+00 tol =   0.100000E-14
 Iteration #          5
  pAp =   1.485868803572696E-003  rzold =   4.160351390698579E-004  alpha = 
  0.279994531192473     
 delta_qm =   0.292536E-03 delta_en =   0.147877E+00 tol =   0.100000E-14
 Iteration #          6
  pAp =   5.793436514569464E-004  rzold =   3.561061501003004E-004  alpha = 
  0.614671705135211     
 delta_qm =   0.271249E-03 delta_en =   0.127139E+00 tol =   0.100000E-14
 Iteration #          7
  pAp =   5.634559227679372E-004  rzold =   5.776938820871452E-004  alpha = 
   1.02526898510404     
 delta_qm =   0.372488E-03 delta_en =   0.239755E+00 tol =   0.100000E-14
 Iteration #          8
  pAp =   3.007165406686707E-003  rzold =   1.475715249384107E-003  alpha = 
  0.490732982662916     
 delta_qm =   0.452676E-03 delta_en =   0.354094E+00 tol =   0.100000E-14
 Iteration #          9
  pAp =   3.794187732623972E-003  rzold =   1.164472628803903E-003  alpha = 
  0.306909597221902     
 delta_qm =   0.381775E-03 delta_en =   0.251860E+00 tol =   0.100000E-14
 Iteration #         10
  pAp =   1.721967559239778E-003  rzold =   6.894423907805020E-004  alpha = 
  0.400380592004230     
 delta_qm =   0.351621E-03 delta_en =   0.213645E+00 tol =   0.100000E-14
 Iteration #         11
  pAp =   6.939898849791387E-004  rzold =   3.650869618415912E-004  alpha = 
  0.526069572112806     
 delta_qm =   0.309144E-03 delta_en =   0.165145E+00 tol =   0.100000E-14
 Iteration #         12
  pAp =   6.247741834953433E-004  rzold =   3.785315526997368E-004  alpha = 
  0.605869388811835     
 delta_qm =   0.279297E-03 delta_en =   0.134796E+00 tol =   0.100000E-14
 Iteration #         13
  pAp =   9.203806316289291E-004  rzold =   3.914902015711512E-004  alpha = 
  0.425356844893916     
 delta_qm =   0.232424E-03 delta_en =   0.933482E-01 tol =   0.100000E-14
 Iteration #         14
  pAp =   1.348815987310668E-003  rzold =   4.057246968122687E-004  alpha = 
  0.300800628572932     
 delta_qm =   0.179503E-03 delta_en =   0.556786E-01 tol =   0.100000E-14
 Iteration #         15
  pAp =   4.326121979274158E-004  rzold =   1.788591892434004E-004  alpha = 
  0.413440004928871     
 delta_qm =   0.164107E-03 delta_en =   0.465370E-01 tol =   0.100000E-14
 Iteration #         16
  pAp =   1.366321589473003E-004  rzold =   6.688261381153216E-005  alpha = 
  0.489508577825584     
 delta_qm =   0.135321E-03 delta_en =   0.316429E-01 tol =   0.100000E-14
 Iteration #         17
  pAp =   1.207473564696074E-004  rzold =   5.826158269925100E-005  alpha = 
  0.482508142643402     
 delta_qm =   0.107516E-03 delta_en =   0.199750E-01 tol =   0.100000E-14
 Iteration #         18
  pAp =   5.141860004882993E-005  rzold =   3.352750726416515E-005  alpha = 
  0.652050177023987     
 delta_qm =   0.585942E-04 delta_en =   0.593270E-02 tol =   0.100000E-14
 Iteration #         19
  pAp =   5.619944834861051E-005  rzold =   1.985846520896343E-005  alpha = 
  0.353356941971734     
 delta_qm =   0.382954E-04 delta_en =   0.253418E-02 tol =   0.100000E-14
 Iteration #         20
  pAp =   1.476502786645879E-005  rzold =   6.175974639059253E-006  alpha = 
  0.418283981237110     
 delta_qm =   0.325578E-04 delta_en =   0.183170E-02 tol =   0.100000E-14
 Iteration #         21
  pAp =   6.225294695535338E-006  rzold =   2.936960277436606E-006  alpha = 
  0.471778513480324     
 delta_qm =   0.240362E-04 delta_en =   0.998333E-03 tol =   0.100000E-14
 Iteration #         22
  pAp =   2.950526877638909E-006  rzold =   1.870714968603605E-006  alpha = 
  0.634027428382758     
 delta_qm =   0.164276E-04 delta_en =   0.466331E-03 tol =   0.100000E-14
 Iteration #         23
  pAp =   2.276616076875284E-006  rzold =   1.172536872782166E-006  alpha = 
  0.515034961183049     
 delta_qm =   0.118374E-04 delta_en =   0.242133E-03 tol =   0.100000E-14
 Iteration #         24
  pAp =   2.167942742594326E-006  rzold =   7.108013490807091E-007  alpha = 
  0.327869059968858     
 delta_qm =   0.980125E-05 delta_en =   0.165999E-03 tol =   0.100000E-14
 Iteration #         25
  pAp =   1.495453766803231E-006  rzold =   4.418657284881100E-007  alpha = 
  0.295472677455397     
 delta_qm =   0.825048E-05 delta_en =   0.117626E-03 tol =   0.100000E-14
 Iteration #         26
  pAp =   5.010932889842852E-007  rzold =   1.893457730875010E-007  alpha = 
  0.377865314203877     
 delta_qm =   0.643141E-05 delta_en =   0.714752E-04 tol =   0.100000E-14
 Iteration #         27
  pAp =   2.891165994220388E-007  rzold =   1.317868214267980E-007  alpha = 
  0.455825856039562     
 delta_qm =   0.439092E-05 delta_en =   0.333162E-04 tol =   0.100000E-14
 Iteration #         28
  pAp =   1.218513640938668E-007  rzold =   7.065495980840613E-008  alpha = 
  0.579845456255852     
 delta_qm =   0.282161E-05 delta_en =   0.137575E-04 tol =   0.100000E-14
 Iteration #         29
  pAp =   1.255797391014614E-007  rzold =   4.465611409397699E-008  alpha = 
  0.355599672475011     
 delta_qm =   0.237419E-05 delta_en =   0.974035E-05 tol =   0.100000E-14
 Iteration #         30
  pAp =   2.952595736129789E-008  rzold =   1.493375586749882E-008  alpha = 
  0.505783967807043     
 delta_qm =   0.165941E-05 delta_en =   0.475832E-05 tol =   0.100000E-14
 Iteration #         31
  pAp =   9.314698272648425E-009  rzold =   4.969611746055243E-009  alpha = 
  0.533523641946402     
 delta_qm =   0.951566E-06 delta_en =   0.156466E-05 tol =   0.100000E-14
 Iteration #         32
  pAp =   3.725437827294729E-009  rzold =   2.222013966302922E-009  alpha = 
  0.596443711937199     
 delta_qm =   0.423772E-06 delta_en =   0.310319E-06 tol =   0.100000E-14
 Iteration #         33
  pAp =   2.771413389077759E-009  rzold =   8.866703973059448E-010  alpha = 
  0.319934370238790     
 delta_qm =   0.272725E-06 delta_en =   0.128527E-06 tol =   0.100000E-14
 Iteration #         34
  pAp =   6.092997174683634E-010  rzold =   2.693137190243875E-010  alpha = 
  0.442005323986337     
 delta_qm =   0.153231E-06 delta_en =   0.405729E-07 tol =   0.100000E-14
 Iteration #         35
  pAp =   1.569845016276089E-010  rzold =   5.541010088906423E-011  alpha = 
  0.352965422156802     
 delta_qm =   0.100584E-06 delta_en =   0.174823E-07 tol =   0.100000E-14
 Iteration #         36
  pAp =   1.003392594446591E-010  rzold =   2.677376059450532E-011  alpha = 
  0.266832351989523     
 delta_qm =   0.693522E-07 delta_en =   0.831121E-08 tol =   0.100000E-14
 Iteration #         37
  pAp =   6.193792557457442E-011  rzold =   1.473384711949013E-011  alpha = 
  0.237880861892126     
 delta_qm =   0.452482E-07 delta_en =   0.353790E-08 tol =   0.100000E-14
 Iteration #         38
  pAp =   9.972856949001732E-012  rzold =   5.230056207185158E-012  alpha = 
  0.524429081248245     
 delta_qm =   0.222757E-07 delta_en =   0.857449E-09 tol =   0.100000E-14
 Iteration #         39
  pAp =   2.634716344344747E-012  rzold =   1.549782924492663E-012  alpha = 
  0.588216233530860     
 delta_qm =   0.152315E-07 delta_en =   0.400896E-09 tol =   0.100000E-14
 Iteration #         40
  pAp =   8.451466458293746E-013  rzold =   5.128781172837612E-013  alpha = 
  0.606851035633531     
 delta_qm =   0.109580E-07 delta_en =   0.207494E-09 tol =   0.100000E-14
 Iteration #         41
  pAp =   3.220877325322099E-013  rzold =   2.589833000895443E-013  alpha = 
  0.804076883194069     
 delta_qm =   0.760609E-08 delta_en =   0.999693E-10 tol =   0.100000E-14
 Iteration #         42
  pAp =   2.710383975700272E-013  rzold =   1.579535731115163E-013  alpha = 
  0.582771941273400     
 delta_qm =   0.589606E-08 delta_en =   0.600714E-10 tol =   0.100000E-14
 Iteration #         43
  pAp =   4.160891398286093E-013  rzold =   1.419160922497521E-013  alpha = 
  0.341071368284711     
 delta_qm =   0.445759E-08 delta_en =   0.343355E-10 tol =   0.100000E-14
 Iteration #         44
  pAp =   1.150743074640621E-013  rzold =   4.893196639886285E-014  alpha = 
  0.425220602906035     
 delta_qm =   0.290946E-08 delta_en =   0.146274E-10 tol =   0.100000E-14
 Iteration #         45
  pAp =   2.972392563138869E-014  rzold =   1.528091646180893E-014  alpha = 
  0.514094828903494     
 delta_qm =   0.149610E-08 delta_en =   0.386783E-11 tol =   0.100000E-14
 Iteration #         46
  pAp =   9.778610439401759E-015  rzold =   4.183698488860378E-015  alpha = 
  0.427841820142733     
 delta_qm =   0.884644E-09 delta_en =   0.135233E-11 tol =   0.100000E-14
 Iteration #         47
  pAp =   1.495900308792940E-014  rzold =   3.460263848853817E-015  alpha = 
  0.231316473999925     
 delta_qm =   0.581236E-09 delta_en =   0.583780E-12 tol =   0.100000E-14
 Iteration #         48
  pAp =   1.677236264513519E-015  rzold =   8.394662958403657E-016  alpha = 
  0.500505691178728     
 delta_qm =   0.294047E-09 delta_en =   0.149409E-12 tol =   0.100000E-14
 Iteration #         49
  pAp =   6.282638700403333E-016  rzold =   2.163913101797765E-016  alpha = 
  0.344427430095391     
 delta_qm =   0.208612E-09 delta_en =   0.752004E-13 tol =   0.100000E-14
 Iteration #         50
  pAp =   4.629812431454235E-016  rzold =   1.233253099392306E-016  alpha = 
  0.266372151712621     
 delta_qm =   0.142448E-09 delta_en =   0.350638E-13 tol =   0.100000E-14
 Iteration #         51
  pAp =   1.560837085807374E-016  rzold =   4.936694056379083E-017  alpha = 
  0.316285030722824     
 delta_qm =   0.933946E-10 delta_en =   0.150726E-13 tol =   0.100000E-14
 Iteration #         52
  pAp =   5.385278445573061E-017  rzold =   2.275875910985494E-017  alpha = 
  0.422610628955754     
 delta_qm =   0.563237E-10 delta_en =   0.548183E-14 tol =   0.100000E-14
 Iteration #         53
  pAp =   1.604272709561678E-017  rzold =   8.538255492219038E-018  alpha = 
  0.532219705622984     
 delta_qm =   0.388698E-10 delta_en =   0.261076E-14 tol =   0.100000E-14
 Iteration #         54
  pAp =   6.743053826817190E-018  rzold =   3.380772808913104E-018  alpha = 
  0.501371173320275     
 delta_qm =   0.268028E-10 delta_en =   0.124138E-14 tol =   0.100000E-14
 Iteration #         55
  pAp =   2.662573711038073E-018  rzold =   1.167983044857596E-018  alpha = 
  0.438666933431949     
 delta_qm =   0.168542E-10 delta_en =   0.490860E-15 tol =   0.100000E-14
 Charges are converged, EXIT

%%%% DENSITY %%%%%%%%%%%%%%%%%%%%%%%%%%%%%%%%%%%%%%%%%%%%%%%%%%%%%%%%%%%%%%%%%%%
 density label              = velectrostatic                                                                  
 integral of density        =    -0.2888224639E-13

%%%% CHARGES %%%%%%%%%%%%%%%%%%%%%%%%%%%%%%%%%%%%%%%%%%%%%%%%%%%%%%%%%%%%%%%%%%%
 total number of charges    =         11
 total charge               =     -0.0000000

%%%% DENSITY %%%%%%%%%%%%%%%%%%%%%%%%%%%%%%%%%%%%%%%%%%%%%%%%%%%%%%%%%%%%%%%%%%%
 density label              = vsoftcavity                                                                     
 integral of density        =      13.35825576    

%%%% ELECTRONS %%%%%%%%%%%%%%%%%%%%%%%%%%%%%%%%%%%%%%%%%%%%%%%%%%%%%%%%%%%%%%%%%
 number of electrons        =          8
 total electronic charge    =      8.0000000

%%%% BOUNDARY %%%%%%%%%%%%%%%%%%%%%%%%%%%%%%%%%%%%%%%%%%%%%%%%%%%%%%%%%%%%%%%%%%
 boundary label             = solvent              
 boundary mode              = electronic           
 boundary is built as a function of a smooth density
 function type              =  1 
 using the optimal SCCS function with parameters 
 rhomax                     =      0.0050000 
 rhomin                     =      0.0001000 
 volume of the QM region    =    227.6135083 
 surface of the QM region   =    179.8496093 

%%%% DIELECTRIC %%%%%%%%%%%%%%%%%%%%%%%%%%%%%%%%%%%%%%%%%%%%%%%%%%%%%%%%%%%%%%%%%
 dielectric build in the presence of dielectric regions
 environment bulk permitt.  =      1.0000000 
 number of dielec. regions  =    1 

%%%% FUNCTIONS %%%%%%%%%%%%%%%%%%%%%%%%%%%%%%%%%%%%%%%%%%%%%%%%%%%%%%%%%%%%%%%%%
 number of functions        =          1
 Scaled ERFC function, type = 4 
 number                     =   1 
 dimensionality             = 2 
 axis                       = 3 
 width                      =     2.000000 
 spread                     =     0.500000 
 max value                  =   100.000000 
 dielectric flags
 need gradient              =  F 
 need factor depend. sqrt   =  T 
 total dielectric charge    =      0.0740526

%%%% DENSITY %%%%%%%%%%%%%%%%%%%%%%%%%%%%%%%%%%%%%%%%%%%%%%%%%%%%%%%%%%%%%%%%%%%
 density label              = vreference                                                                      
 integral of density        =    -0.1473718267E-13

%%%% COMPUTE ELECTROSTATIC POTENTIAL %%%%%%%%%%%%%%%%%%%%%%%%%%%%%%%%%%%%%%%%%%%
 Warning: bad guess with residual norm =   0.811638E+01, reset to no guess
 Iteration #          1
  pAp =    28.4747833279148       rzold =    28.4499974143399       alpha = 
  0.999129548650488     
 delta_qm =   0.216563E-02 delta_en =   0.810427E+01 tol =   0.100000E-14
 Iteration #          2
  pAp =   0.882234368859244       rzold =   0.126198176561796       alpha = 
  0.143043822612549     
 delta_qm =   0.869889E-03 delta_en =   0.130759E+01 tol =   0.100000E-14
 Iteration #          3
  pAp =   4.272735727975517E-002  rzold =   8.274724526645686E-003  alpha = 
  0.193663382279118     
 delta_qm =   0.499299E-03 delta_en =   0.430789E+00 tol =   0.100000E-14
 Iteration #          4
  pAp =   5.126463042526569E-003  rzold =   1.362516654649129E-003  alpha = 
  0.265781035256935     
 delta_qm =   0.366833E-03 delta_en =   0.232531E+00 tol =   0.100000E-14
 Iteration #          5
  pAp =   1.576794772649633E-003  rzold =   4.608389094697116E-004  alpha = 
  0.292263088046215     
 delta_qm =   0.326717E-03 delta_en =   0.184453E+00 tol =   0.100000E-14
 Iteration #          6
  pAp =   7.261537448772830E-004  rzold =   4.515045706215635E-004  alpha = 
  0.621775448803705     
 delta_qm =   0.310341E-03 delta_en =   0.166427E+00 tol =   0.100000E-14
 Iteration #          7
  pAp =   6.959038716073154E-004  rzold =   8.081877260748243E-004  alpha = 
   1.16134966199882     
 delta_qm =   0.495930E-03 delta_en =   0.424995E+00 tol =   0.100000E-14
 Iteration #          8
  pAp =   4.123512450590189E-003  rzold =   2.371031163927468E-003  alpha = 
  0.575002790057808     
 delta_qm =   0.691831E-03 delta_en =   0.827073E+00 tol =   0.100000E-14
 Iteration #          9
  pAp =   4.836940949244274E-003  rzold =   1.966027921592425E-003  alpha = 
  0.406461013732160     
 delta_qm =   0.608906E-03 delta_en =   0.640685E+00 tol =   0.100000E-14
 Iteration #         10
  pAp =   5.209953287022013E-003  rzold =   1.810637882003553E-003  alpha = 
  0.347534379341529     
 delta_qm =   0.601861E-03 delta_en =   0.625945E+00 tol =   0.100000E-14
 Iteration #         11
  pAp =   2.045191017870166E-003  rzold =   1.072754616247522E-003  alpha = 
  0.524525389987618     
 delta_qm =   0.541575E-03 delta_en =   0.506829E+00 tol =   0.100000E-14
 Iteration #         12
  pAp =   1.954233888609551E-003  rzold =   1.203657006910476E-003  alpha = 
  0.615922696830769     
 delta_qm =   0.521902E-03 delta_en =   0.470675E+00 tol =   0.100000E-14
 Iteration #         13
  pAp =   2.795052078562218E-003  rzold =   1.286793746494035E-003  alpha = 
  0.460382744337259     
 delta_qm =   0.430475E-03 delta_en =   0.320213E+00 tol =   0.100000E-14
 Iteration #         14
  pAp =   4.729356663890325E-003  rzold =   1.333748708630357E-003  alpha = 
  0.282014828531293     
 delta_qm =   0.324788E-03 delta_en =   0.182282E+00 tol =   0.100000E-14
 Iteration #         15
  pAp =   1.426248895359059E-003  rzold =   5.799200410783435E-004  alpha = 
  0.406605076410838     
 delta_qm =   0.297648E-03 delta_en =   0.153091E+00 tol =   0.100000E-14
 Iteration #         16
  pAp =   4.090682786190207E-004  rzold =   2.111123095112695E-004  alpha = 
  0.516080861180355     
 delta_qm =   0.250616E-03 delta_en =   0.108533E+00 tol =   0.100000E-14
 Iteration #         17
  pAp =   4.225232635611906E-004  rzold =   1.970699765861015E-004  alpha = 
  0.466412132967825     
 delta_qm =   0.208039E-03 delta_en =   0.747883E-01 tol =   0.100000E-14
 Iteration #         18
  pAp =   1.649835768589699E-004  rzold =   1.162547638562147E-004  alpha = 
  0.704644462615760     
 delta_qm =   0.107286E-03 delta_en =   0.198896E-01 tol =   0.100000E-14
 Iteration #         19
  pAp =   1.570943461864828E-004  rzold =   5.806084293497498E-005  alpha = 
  0.369592186761784     
 delta_qm =   0.730491E-04 delta_en =   0.922090E-02 tol =   0.100000E-14
 Iteration #         20
  pAp =   6.540438657461028E-005  rzold =   2.510810221325905E-005  alpha = 
  0.383890187313612     
 delta_qm =   0.629692E-04 delta_en =   0.685172E-02 tol =   0.100000E-14
 Iteration #         21
  pAp =   1.622982472684402E-005  rzold =   9.734182108771051E-006  alpha = 
  0.599771240454050     
 delta_qm =   0.443045E-04 delta_en =   0.339187E-02 tol =   0.100000E-14
 Iteration #         22
  pAp =   1.174313644888635E-005  rzold =   7.007187736289558E-006  alpha = 
  0.596704957554511     
 delta_qm =   0.334718E-04 delta_en =   0.193598E-02 tol =   0.100000E-14
 Iteration #         23
  pAp =   1.662498921236650E-005  rzold =   5.988452936894936E-006  alpha = 
  0.360207929184124     
 delta_qm =   0.261321E-04 delta_en =   0.118003E-02 tol =   0.100000E-14
 Iteration #         24
  pAp =   1.249073353075541E-005  rzold =   3.965797380916177E-006  alpha = 
  0.317499158168042     
 delta_qm =   0.220245E-04 delta_en =   0.838215E-03 tol =   0.100000E-14
 Iteration #         25
  pAp =   7.227070560633897E-006  rzold =   2.230984026338209E-006  alpha = 
  0.308698248843792     
 delta_qm =   0.189648E-04 delta_en =   0.621502E-03 tol =   0.100000E-14
 Iteration #         26
  pAp =   1.370839490269749E-006  rzold =   7.823347992631068E-007  alpha = 
  0.570697594296150     
 delta_qm =   0.133011E-04 delta_en =   0.305715E-03 tol =   0.100000E-14
 Iteration #         27
  pAp =   1.174509714357230E-006  rzold =   5.396347478870181E-007  alpha = 
  0.459455329564764     
 delta_qm =   0.967199E-05 delta_en =   0.161650E-03 tol =   0.100000E-14
 Iteration #         28
  pAp =   9.698940223384171E-007  rzold =   4.494324036193030E-007  alpha = 
  0.463383001923984     
 delta_qm =   0.663598E-05 delta_en =   0.760947E-04 tol =   0.100000E-14
 Iteration #         29
  pAp =   3.598248643519987E-007  rzold =   1.681394584339893E-007  alpha = 
  0.467281377946986     
 delta_qm =   0.520329E-05 delta_en =   0.467842E-04 tol =   0.100000E-14
 Iteration #         30
  pAp =   1.323136567228724E-007  rzold =   6.298460146104346E-008  alpha = 
  0.476024947243074     
 delta_qm =   0.349070E-05 delta_en =   0.210557E-04 tol =   0.100000E-14
 Iteration #         31
  pAp =   4.945517249243866E-008  rzold =   2.351102953867387E-008  alpha = 
  0.475400819646692     
 delta_qm =   0.204185E-05 delta_en =   0.720430E-05 tol =   0.100000E-14
 Iteration #         32
  pAp =   1.935667118725948E-008  rzold =   1.075947917466599E-008  alpha = 
  0.555853796893954     
 delta_qm =   0.971407E-06 delta_en =   0.163059E-05 tol =   0.100000E-14
 Iteration #         33
  pAp =   9.889703920099036E-009  rzold =   3.747862159115645E-009  alpha = 
  0.378966063028317     
 delta_qm =   0.613284E-06 delta_en =   0.649930E-06 tol =   0.100000E-14
 Iteration #         34
  pAp =   3.853746761720974E-009  rzold =   1.440221176113493E-009  alpha = 
  0.373719723988903     
 delta_qm =   0.379287E-06 delta_en =   0.248588E-06 tol =   0.100000E-14
 Iteration #         35
  pAp =   7.265685842737169E-010  rzold =   2.959686683507811E-010  alpha = 
  0.407351315150287     
[...]
 delta_qm =   0.547240E-08 delta_en =   0.517487E-10 tol =   0.100000E-14
 Iteration #         45
  pAp =   5.860520474872376E-014  rzold =   3.971917371253241E-014  alpha = 
  0.677741403392970     
 delta_qm =   0.303059E-08 delta_en =   0.158708E-10 tol =   0.100000E-14
 Iteration #         46
  pAp =   6.056780629729881E-014  rzold =   2.566924310336894E-014  alpha = 
  0.423810018434063     
 delta_qm =   0.203674E-08 delta_en =   0.716826E-11 tol =   0.100000E-14
 Iteration #         47
  pAp =   4.904603551777427E-014  rzold =   1.514254696829826E-014  alpha = 
  0.308741508022817     
 delta_qm =   0.191983E-08 delta_en =   0.636898E-11 tol =   0.100000E-14
 Iteration #         48
  pAp =   2.854799801792660E-014  rzold =   9.329419352488990E-015  alpha = 
  0.326797674100671     
 delta_qm =   0.150110E-08 delta_en =   0.389372E-11 tol =   0.100000E-14
 Iteration #         49
  pAp =   1.392824224327119E-014  rzold =   4.976117495833793E-015  alpha = 
  0.357268161259744     
 delta_qm =   0.116345E-08 delta_en =   0.233907E-11 tol =   0.100000E-14
 Iteration #         50
  pAp =   2.795958538093993E-015  rzold =   1.871900124311248E-015  alpha = 
  0.669502104128956     
 delta_qm =   0.592043E-09 delta_en =   0.605689E-12 tol =   0.100000E-14
 Iteration #         51
  pAp =   2.906294172117018E-015  rzold =   1.006079861107587E-015  alpha = 
  0.346172755242713     
 delta_qm =   0.465699E-09 delta_en =   0.374760E-12 tol =   0.100000E-14
 Iteration #         52
  pAp =   2.459043716137406E-015  rzold =   7.317734538954315E-016  alpha = 
  0.297584564720500     
 delta_qm =   0.334650E-09 delta_en =   0.193520E-12 tol =   0.100000E-14
 Iteration #         53
  pAp =   7.402043198217677E-016  rzold =   2.440849418355293E-016  alpha = 
  0.329753468467061     
 delta_qm =   0.251794E-09 delta_en =   0.109556E-12 tol =   0.100000E-14
 Iteration #         54
  pAp =   1.490015258849538E-016  rzold =   8.063220656347327E-017  alpha = 
  0.541150206916207     
 delta_qm =   0.132086E-09 delta_en =   0.301479E-13 tol =   0.100000E-14
 Iteration #         55
  pAp =   4.808110726932712E-017  rzold =   2.790586266315963E-017  alpha = 
  0.580391431229827     
 delta_qm =   0.675054E-10 delta_en =   0.787446E-14 tol =   0.100000E-14
 Iteration #         56
  pAp =   2.467572737104470E-017  rzold =   1.195231249133702E-017  alpha = 
  0.484375285543244     
 delta_qm =   0.457298E-10 delta_en =   0.361362E-14 tol =   0.100000E-14
 Iteration #         57
  pAp =   9.781574732447883E-018  rzold =   3.274296695476038E-018  alpha = 
  0.334741264575160     
 delta_qm =   0.325565E-10 delta_en =   0.183156E-14 tol =   0.100000E-14
 Iteration #         58
  pAp =   1.095109896632985E-017  rzold =   2.904828072303881E-018  alpha = 
  0.265254480964425     
 delta_qm =   0.182235E-10 delta_en =   0.573862E-15 tol =   0.100000E-14
 Charges are converged, EXIT

%%%% DENSITY %%%%%%%%%%%%%%%%%%%%%%%%%%%%%%%%%%%%%%%%%%%%%%%%%%%%%%%%%%%%%%%%%%%
 density label              = velectrostatic                                                                  
 integral of density        =     0.5690920985E-13

%%%% CHARGES %%%%%%%%%%%%%%%%%%%%%%%%%%%%%%%%%%%%%%%%%%%%%%%%%%%%%%%%%%%%%%%%%%%
 total number of charges    =         11
 total charge               =      0.0000000

%%%% DENSITY %%%%%%%%%%%%%%%%%%%%%%%%%%%%%%%%%%%%%%%%%%%%%%%%%%%%%%%%%%%%%%%%%%%
 density label              = vsoftcavity                                                                     
 integral of density        =      22.09663060    

%%%% ELECTRONS %%%%%%%%%%%%%%%%%%%%%%%%%%%%%%%%%%%%%%%%%%%%%%%%%%%%%%%%%%%%%%%%%
 number of electrons        =          8
 total electronic charge    =      8.0000000

%%%% BOUNDARY %%%%%%%%%%%%%%%%%%%%%%%%%%%%%%%%%%%%%%%%%%%%%%%%%%%%%%%%%%%%%%%%%%
 boundary label             = solvent              
 boundary mode              = electronic           
 boundary is built as a function of a smooth density
 function type              =  1 
 using the optimal SCCS function with parameters 
 rhomax                     =      0.0050000 
 rhomin                     =      0.0001000 
 volume of the QM region    =    227.8482090 
 surface of the QM region   =    180.4251836 

%%%% DIELECTRIC %%%%%%%%%%%%%%%%%%%%%%%%%%%%%%%%%%%%%%%%%%%%%%%%%%%%%%%%%%%%%%%%%
 dielectric build in the presence of dielectric regions
 environment bulk permitt.  =      1.0000000 
 number of dielec. regions  =    1 

%%%% FUNCTIONS %%%%%%%%%%%%%%%%%%%%%%%%%%%%%%%%%%%%%%%%%%%%%%%%%%%%%%%%%%%%%%%%%
 number of functions        =          1
 Scaled ERFC function, type = 4 
 number                     =   1 
 dimensionality             = 2 
 axis                       = 3 
 width                      =     2.000000 
 spread                     =     0.500000 
 max value                  =   100.000000 
 dielectric flags
 need gradient              =  F 
 need factor depend. sqrt   =  T 
 total dielectric charge    =     -0.0749453

%%%% DENSITY %%%%%%%%%%%%%%%%%%%%%%%%%%%%%%%%%%%%%%%%%%%%%%%%%%%%%%%%%%%%%%%%%%%
 density label              = vreference                                                                      
 integral of density        =     0.1399374443E-12

%%%% COMPUTE ELECTROSTATIC POTENTIAL %%%%%%%%%%%%%%%%%%%%%%%%%%%%%%%%%%%%%%%%%%%
 Warning: bad guess with residual norm =   0.112735E+02, reset to no guess
 Iteration #          1
  pAp =    28.4569375916385       rzold =    28.4277500800051       alpha = 
  0.998974327032224     
 delta_qm =   0.255191E-02 delta_en =   0.112531E+02 tol =   0.100000E-14
 Iteration #          2
  pAp =   0.982961512193014       rzold =   0.143421004502855       alpha = 
  0.145907039821812     
 delta_qm =   0.111813E-02 delta_en =   0.216036E+01 tol =   0.100000E-14
 Iteration #          3
  pAp =   5.206288594319131E-002  rzold =   1.038685869456415E-002  alpha = 
  0.199506010978681     
 delta_qm =   0.605849E-03 delta_en =   0.634267E+00 tol =   0.100000E-14
 Iteration #          4
  pAp =   6.428064955067194E-003  rzold =   1.695134597873412E-003  alpha = 
  0.263708380317027     
 delta_qm =   0.429645E-03 delta_en =   0.318979E+00 tol =   0.100000E-14
 Iteration #          5
  pAp =   1.556144380437168E-003  rzold =   5.279325429669258E-004  alpha = 
  0.339256787226011     
 delta_qm =   0.396584E-03 delta_en =   0.271777E+00 tol =   0.100000E-14
 Iteration #          6
  pAp =   1.025846971478036E-003  rzold =   7.185304827230958E-004  alpha = 
  0.700426576965802     
 delta_qm =   0.455500E-03 delta_en =   0.358525E+00 tol =   0.100000E-14
 Iteration #          7
  pAp =   1.081541261041515E-003  rzold =   1.727589575740599E-003  alpha = 
   1.59734042331121     
 delta_qm =   0.131918E-02 delta_en =   0.300712E+01 tol =   0.100000E-14
 Iteration #          8
  pAp =   3.509895667799801E-003  rzold =   9.926180108829421E-003  alpha = 
   2.82805560287543     
 delta_qm =   0.898594E-02 delta_en =   0.139531E+03 tol =   0.100000E-14
 Iteration #          9
  pAp =  -0.805366567185851       rzold =   0.199428210853494       alpha = 
 -0.247624149026133     
 delta_qm =   0.338688E-02 delta_en =   0.198218E+02 tol =   0.100000E-14
 Iteration #         10
  pAp =   0.201892294490620       rzold =   3.974253108905985E-002  alpha = 
  0.196850163050212     
 delta_qm =   0.168871E-02 delta_en =   0.492783E+01 tol =   0.100000E-14
 Iteration #         11
  pAp =   3.262545655634125E-002  rzold =   1.021188081151727E-002  alpha = 
  0.313003460775553     
 delta_qm =   0.101307E-02 delta_en =   0.177348E+01 tol =   0.100000E-14
 Iteration #         12
  pAp =   1.642362042133630E-002  rzold =   5.901443979533506E-003  alpha = 
  0.359326617891559     
 delta_qm =   0.683509E-03 delta_en =   0.807294E+00 tol =   0.100000E-14
 Iteration #         13
  pAp =   5.502597735915634E-003  rzold =   2.103585065006735E-003  alpha = 
  0.382289450540163     
 delta_qm =   0.462966E-03 delta_en =   0.370375E+00 tol =   0.100000E-14
 Iteration #         14
  pAp =   3.535405476270201E-003  rzold =   9.707978352430277E-004  alpha = 
  0.274593067686031     
 delta_qm =   0.349772E-03 delta_en =   0.211404E+00 tol =   0.100000E-14
 Iteration #         15
  pAp =   1.469968747726184E-003  rzold =   4.997638563125786E-004  alpha = 
  0.339982640505546     
 delta_qm =   0.325718E-03 delta_en =   0.183327E+00 tol =   0.100000E-14
 Iteration #         16
  pAp =   3.512691566855694E-004  rzold =   1.940046641316641E-004  alpha = 
  0.552296324454478     
 delta_qm =   0.243264E-03 delta_en =   0.102258E+00 tol =   0.100000E-14
 Iteration #         17
  pAp =   4.142898076651804E-004  rzold =   1.932564497152873E-004  alpha = 
  0.466476476465655     
 delta_qm =   0.183637E-03 delta_en =   0.582725E-01 tol =   0.100000E-14
 Iteration #         18
  pAp =   2.007637997013196E-004  rzold =   1.100274021145996E-004  alpha = 
  0.548044031236158     
 delta_qm =   0.986983E-04 delta_en =   0.168330E-01 tol =   0.100000E-14
 Iteration #         19
  pAp =   1.120803622943686E-004  rzold =   4.400886815387184E-005  alpha = 
  0.392654585093923     
 delta_qm =   0.795408E-04 delta_en =   0.109326E-01 tol =   0.100000E-14
 Iteration #         20
  pAp =   4.604883885099751E-005  rzold =   2.114956544513291E-005  alpha = 
  0.459285531901632     
 delta_qm =   0.682429E-04 delta_en =   0.804746E-02 tol =   0.100000E-14
 Iteration #         21
  pAp =   2.149204856451438E-005  rzold =   1.217888394098543E-005  alpha = 
  0.566669291874486     
 delta_qm =   0.506410E-04 delta_en =   0.443148E-02 tol =   0.100000E-14
 Iteration #         22
  pAp =   2.211396893725771E-005  rzold =   1.042392683326755E-005  alpha = 
  0.471372952672700     
 delta_qm =   0.359783E-04 delta_en =   0.223679E-02 tol =   0.100000E-14
 Iteration #         23
  pAp =   2.479908169830385E-005  rzold =   7.213609963921599E-006  alpha = 
  0.290882140382439     
 delta_qm =   0.278862E-04 delta_en =   0.134377E-02 tol =   0.100000E-14
 Iteration #         24
  pAp =   1.324969088619193E-005  rzold =   4.147327431233306E-006  alpha = 
  0.313013146258032     
 delta_qm =   0.249993E-04 delta_en =   0.107994E-02 tol =   0.100000E-14
 Iteration #         25
  pAp =   3.377647574460091E-006  rzold =   1.420361972032889E-006  alpha = 
  0.420518109341212     
 delta_qm =   0.205718E-04 delta_en =   0.731289E-03 tol =   0.100000E-14
 Iteration #         26
  pAp =   1.458842352678861E-006  rzold =   7.456755524360056E-007  alpha = 
  0.511141968881509     
 delta_qm =   0.132175E-04 delta_en =   0.301885E-03 tol =   0.100000E-14
 Iteration #         27
  pAp =   1.026100181851096E-006  rzold =   5.020770292457902E-007  alpha = 
  0.489306052299921     
 delta_qm =   0.746899E-05 delta_en =   0.963979E-04 tol =   0.100000E-14
 Iteration #         28
  pAp =   6.312344953653271E-007  rzold =   2.587396343133278E-007  alpha = 
  0.409894636958302     
 delta_qm =   0.543566E-05 delta_en =   0.510562E-04 tol =   0.100000E-14
 Iteration #         29
  pAp =   3.427356702793984E-007  rzold =   1.166236768023418E-007  alpha = 
  0.340272947683765     
 delta_qm =   0.433677E-05 delta_en =   0.324995E-04 tol =   0.100000E-14
 Iteration #         30
  pAp =   6.796430674088143E-008  rzold =   3.594363945004742E-008  alpha = 
  0.528860532442198     
 delta_qm =   0.260220E-05 delta_en =   0.117011E-04 tol =   0.100000E-14
 Iteration #         31
  pAp =   1.846464445494340E-008  rzold =   1.059732671999445E-008  alpha = 
  0.573925306054692     
 delta_qm =   0.133569E-05 delta_en =   0.308287E-05 tol =   0.100000E-14
 Iteration #         32
  pAp =   7.774895278963169E-009  rzold =   4.491443903026804E-009  alpha = 
  0.577685453227836     
 delta_qm =   0.677024E-06 delta_en =   0.792049E-06 tol =   0.100000E-14
 Iteration #         33
  pAp =   4.996652004028034E-009  rzold =   1.796656656064485E-009  alpha = 
  0.359572100401652     
 delta_qm =   0.450358E-06 delta_en =   0.350478E-06 tol =   0.100000E-14
 Iteration #         34
  pAp =   1.567063501288439E-009  rzold =   5.923651156916944E-010  alpha = 
  0.378009643645361     
 delta_qm =   0.306439E-06 delta_en =   0.162268E-06 tol =   0.100000E-14
 Iteration #         35
  pAp =   3.139860685697519E-010  rzold =   1.536321977264390E-010  alpha = 
  0.489296223957496     
 delta_qm =   0.184226E-06 delta_en =   0.586470E-07 tol =   0.100000E-14
 Iteration #         36
  pAp =   1.614681704763635E-010  rzold =   7.308882743059550E-011  alpha = 
  0.452651610623746     
 delta_qm =   0.109527E-06 delta_en =   0.207293E-07 tol =   0.100000E-14
 Iteration #         37
  pAp =   9.956730747094541E-011  rzold =   4.447567333906563E-011  alpha = 
  0.446689525595979     
 delta_qm =   0.755093E-07 delta_en =   0.985247E-08 tol =   0.100000E-14
 Iteration #         38
  pAp =   1.363391560410922E-010  rzold =   2.617314849239511E-011  alpha = 
  0.191970885344975     
 delta_qm =   0.689108E-07 delta_en =   0.820574E-08 tol =   0.100000E-14
 Iteration #         39
  pAp =   2.206548375522451E-011  rzold =   1.159067755007185E-011  alpha = 
  0.525285449376449     
 delta_qm =   0.490228E-07 delta_en =   0.415279E-08 tol =   0.100000E-14
 Iteration #         40
  pAp =   4.926381694923207E-012  rzold =   3.132146235491722E-012  alpha = 
  0.635790409565604     
 delta_qm =   0.288480E-07 delta_en =   0.143805E-08 tol =   0.100000E-14
 Iteration #         41
  pAp =   4.761029300948777E-012  rzold =   1.891941352559858E-012  alpha = 
  0.397380741215525     
 delta_qm =   0.175078E-07 delta_en =   0.529674E-09 tol =   0.100000E-14
 Iteration #         42
  pAp =   2.985028404532172E-012  rzold =   1.053963432816826E-012  alpha = 
  0.353083217304262     
 delta_qm =   0.113573E-07 delta_en =   0.222892E-09 tol =   0.100000E-14
 Iteration #         43
  pAp =   6.198957950453832E-013  rzold =   3.253957237137953E-013  alpha = 
  0.524920037068444     
 delta_qm =   0.798414E-08 delta_en =   0.110154E-09 tol =   0.100000E-14
 Iteration #         44
  pAp =   1.807812907871382E-013  rzold =   1.043123903624398E-013  alpha = 
  0.577008770698860     
 delta_qm =   0.547099E-08 delta_en =   0.517221E-10 tol =   0.100000E-14
 Iteration #         45
  pAp =   5.972624587513796E-014  rzold =   3.996006884523060E-014  alpha = 
  0.669053751156067     
 delta_qm =   0.310104E-08 delta_en =   0.166173E-10 tol =   0.100000E-14
 Iteration #         46
  pAp =   7.490629149301185E-014  rzold =   2.764626489247569E-014  alpha = 
  0.369078008554927     
 delta_qm =   0.204277E-08 delta_en =   0.721078E-11 tol =   0.100000E-14
 Iteration #         47
  pAp =   6.847272624842424E-014  rzold =   1.890177845890085E-014  alpha = 
  0.276048282206900     
 delta_qm =   0.195450E-08 delta_en =   0.660106E-11 tol =   0.100000E-14
 Iteration #         48
  pAp =   2.335737062810476E-014  rzold =   9.077477860970202E-015  alpha = 
  0.388634406051156     
 delta_qm =   0.153392E-08 delta_en =   0.406581E-11 tol =   0.100000E-14
 Iteration #         49
  pAp =   1.250465341027599E-014  rzold =   4.835282819522753E-015  alpha = 
  0.386678675600017     
 delta_qm =   0.116924E-08 delta_en =   0.236240E-11 tol =   0.100000E-14
 Iteration #         50
  pAp =   2.854872374797388E-015  rzold =   1.879626948173994E-015  alpha = 
  0.658392635960616     
 delta_qm =   0.597569E-09 delta_en =   0.617049E-12 tol =   0.100000E-14
 Iteration #         51
  pAp =   3.969195665948338E-015  rzold =   1.158903698232917E-015  alpha = 
  0.291974444136159     
 delta_qm =   0.483824E-09 delta_en =   0.404501E-12 tol =   0.100000E-14
 Iteration #         52
  pAp =   2.163682754779074E-015  rzold =   7.385984699923300E-016  alpha = 
  0.341361721518988     
 delta_qm =   0.336872E-09 delta_en =   0.196098E-12 tol =   0.100000E-14
 Iteration #         53
  pAp =   6.954415948526228E-016  rzold =   2.412355483475679E-016  alpha = 
  0.346881104226575     
 delta_qm =   0.251382E-09 delta_en =   0.109197E-12 tol =   0.100000E-14
 Iteration #         54
  pAp =   1.467648105932002E-016  rzold =   8.003311559760749E-017  alpha = 
  0.545315428638011     
 delta_qm =   0.132151E-09 delta_en =   0.301774E-13 tol =   0.100000E-14
 Iteration #         55
  pAp =   4.785028219677276E-017  rzold =   2.783350764071480E-017  alpha = 
  0.581679069859112     
 delta_qm =   0.673606E-10 delta_en =   0.784072E-14 tol =   0.100000E-14
 Iteration #         56
  pAp =   2.420538757388371E-017  rzold =   1.189530552851609E-017  alpha = 
  0.491432144691229     
 delta_qm =   0.452790E-10 delta_en =   0.354273E-14 tol =   0.100000E-14
 Iteration #         57
  pAp =   6.100775267011768E-018  rzold =   2.805652337709121E-018  alpha = 
  0.459884558095411     
 delta_qm =   0.281815E-10 delta_en =   0.137237E-14 tol =   0.100000E-14
 Iteration #         58
  pAp =   1.276157245272058E-017  rzold =   2.545535584518794E-018  alpha = 
  0.199468803233266     
 delta_qm =   0.179958E-10 delta_en =   0.559613E-15 tol =   0.100000E-14
 Charges are converged, EXIT

%%%% DENSITY %%%%%%%%%%%%%%%%%%%%%%%%%%%%%%%%%%%%%%%%%%%%%%%%%%%%%%%%%%%%%%%%%%%
 density label              = velectrostatic                                                                  
 integral of density        =    -0.3325076839E-12

%%%% CHARGES %%%%%%%%%%%%%%%%%%%%%%%%%%%%%%%%%%%%%%%%%%%%%%%%%%%%%%%%%%%%%%%%%%%
 total number of charges    =         11
 total charge               =      0.0000000

%%%% DENSITY %%%%%%%%%%%%%%%%%%%%%%%%%%%%%%%%%%%%%%%%%%%%%%%%%%%%%%%%%%%%%%%%%%%
 density label              = vsoftcavity                                                                     
 integral of density        =      22.12204019    

%%%% ELECTRONS %%%%%%%%%%%%%%%%%%%%%%%%%%%%%%%%%%%%%%%%%%%%%%%%%%%%%%%%%%%%%%%%%
 number of electrons        =          8
 total electronic charge    =      8.0000000

%%%% BOUNDARY %%%%%%%%%%%%%%%%%%%%%%%%%%%%%%%%%%%%%%%%%%%%%%%%%%%%%%%%%%%%%%%%%%
 boundary label             = solvent              
 boundary mode              = electronic           
 boundary is built as a function of a smooth density
 function type              =  1 
 using the optimal SCCS function with parameters 
 rhomax                     =      0.0050000 
 rhomin                     =      0.0001000 
 volume of the QM region    =    227.8482090 
 surface of the QM region   =    180.4251836 

%%%% DIELECTRIC %%%%%%%%%%%%%%%%%%%%%%%%%%%%%%%%%%%%%%%%%%%%%%%%%%%%%%%%%%%%%%%%%
 dielectric build in the presence of dielectric regions
 environment bulk permitt.  =      1.0000000 
 number of dielec. regions  =    1 

%%%% FUNCTIONS %%%%%%%%%%%%%%%%%%%%%%%%%%%%%%%%%%%%%%%%%%%%%%%%%%%%%%%%%%%%%%%%%
 number of functions        =          1
 Scaled ERFC function, type = 4 
 number                     =   1 
 dimensionality             = 2 
 axis                       = 3 
 width                      =     2.000000 
 spread                     =     0.500000 
 max value                  =   100.000000 
 dielectric flags
 need gradient              =  F 
 need factor depend. sqrt   =  T 
 total dielectric charge    =     -0.0756041

%%%% DENSITY %%%%%%%%%%%%%%%%%%%%%%%%%%%%%%%%%%%%%%%%%%%%%%%%%%%%%%%%%%%%%%%%%%%
 density label              = vreference                                                                      
 integral of density        =     0.1399374443E-12

%%%% DENSITY %%%%%%%%%%%%%%%%%%%%%%%%%%%%%%%%%%%%%%%%%%%%%%%%%%%%%%%%%%%%%%%%%%%
 density label              = velectrostatic                                                                  
 integral of density        =    -0.3325076839E-12

%%%% CHARGES %%%%%%%%%%%%%%%%%%%%%%%%%%%%%%%%%%%%%%%%%%%%%%%%%%%%%%%%%%%%%%%%%%%
 total number of charges    =         11
 total charge               =      0.0000000

%%%% DENSITY %%%%%%%%%%%%%%%%%%%%%%%%%%%%%%%%%%%%%%%%%%%%%%%%%%%%%%%%%%%%%%%%%%%
 density label              = vsoftcavity                                                                     
 integral of density        =      22.12204019    
