
     Program PWSCF v.6.1 (svn rev. 13369) starts on 14Nov2017 at 16:40:45 

     This program is part of the open-source Quantum ESPRESSO suite
     for quantum simulation of materials; please cite
         "P. Giannozzi et al., J. Phys.:Condens. Matter 21 395502 (2009);
          URL http://www.quantum-espresso.org", 
     in publications or presentations arising from this work. More details at
     http://www.quantum-espresso.org/quote

     Parallel version (MPI), running on     1 processors
     Reading input from pw.in

     Current dimensions of program PWSCF are:
     Max number of different atomic species (ntypx) = 10
     Max number of k-points (npk) =  40000
     Max angular momentum in pseudopotentials (lmaxx) =  3
               file H.pbe-rrkjus.UPF: wavefunction(s)  1S renormalized
               file O.pbe-rrkjus.UPF: wavefunction(s)  2S renormalized

     gamma-point specific algorithms are used

     Subspace diagonalization in iterative solution of the eigenvalue problem:
     a serial algorithm will be used

 
     G-vector sticks info
     --------------------
     sticks:   dense  smooth     PW     G-vecs:    dense   smooth      PW
     Sum        9549    3809    949               701475   177509   22119
 


     bravais-lattice index     =            1
     lattice parameter (alat)  =      20.0000  a.u.
     unit-cell volume          =    8000.0000 (a.u.)^3
     number of atoms/cell      =            3
     number of atomic types    =            2
     number of electrons       =         8.00
     number of Kohn-Sham states=            4
     kinetic-energy cutoff     =      30.0000  Ry
     charge density cutoff     =     300.0000  Ry
     convergence threshold     =      5.0E-03
     mixing beta               =       0.7000
     number of iterations used =            8  plain     mixing
     Exchange-correlation      =  SLA  PW   PBE  PBE ( 1  4  3  4 0 0)
 

     Environ Module
     ==============

     Plese cite
         O. Andreussi, I. Dabo and N. Marzari, J. Chem. Phys. 136, 064102 (2012)         
     in publications or presentations arising from this work.

     compensation onset threshold      =               0.1000E+03 

     Electrostatic Setup
     -------------------
     electrostatic problem to solve    = generalized              
     numerical solver adopted          = cg                       
     type of auxiliary density adopted = none                     
     type of core tool for poisson     = fft                      
     type of core tool for s(r) deriv  = analytic                 



     celldm(1)=  20.000000  celldm(2)=   0.000000  celldm(3)=   0.000000
     celldm(4)=   0.000000  celldm(5)=   0.000000  celldm(6)=   0.000000

     crystal axes: (cart. coord. in units of alat)
               a(1) = (   1.000000   0.000000   0.000000 )  
               a(2) = (   0.000000   1.000000   0.000000 )  
               a(3) = (   0.000000   0.000000   1.000000 )  

     reciprocal axes: (cart. coord. in units 2 pi/alat)
               b(1) = (  1.000000  0.000000  0.000000 )  
               b(2) = (  0.000000  1.000000  0.000000 )  
               b(3) = (  0.000000  0.000000  1.000000 )  


     PseudoPot. # 1 for H  read from file:
     /home/andreo/PWSCF/espresso-6.1-Environ-1.0/Environ/tests/../..//pseudo/H.pbe-rrkjus.UPF
     MD5 check sum: 7cc9d459525c9a0585f487a71c3c9563
     Pseudo is Ultrasoft, Zval =  1.0
     Generated by new atomic code, or converted to UPF format
     Using radial grid of 1061 points,  2 beta functions with: 
                l(1) =   0
                l(2) =   0
     Q(r) pseudized with 0 coefficients 


     PseudoPot. # 2 for O  read from file:
     /home/andreo/PWSCF/espresso-6.1-Environ-1.0/Environ/tests/../..//pseudo/O.pbe-rrkjus.UPF
     MD5 check sum: 390ba29e75625707450f3bd3f0eb6be9
     Pseudo is Ultrasoft, Zval =  6.0
     Generated by new atomic code, or converted to UPF format
     Using radial grid of 1269 points,  4 beta functions with: 
                l(1) =   0
                l(2) =   0
                l(3) =   1
                l(4) =   1
     Q(r) pseudized with 0 coefficients 


     atomic species   valence    mass     pseudopotential
        H              1.00     1.00000     H ( 1.00)
        O              6.00    16.00000     O ( 1.00)

     No symmetry found



   Cartesian axes

     site n.     atom                  positions (alat units)
         1           O   tau(   1) = (   0.5895000   0.6025000   0.5750000  )
         2           H   tau(   2) = (   0.6725000   0.5610000   0.5750000  )
         3           H   tau(   3) = (   0.5280000   0.5330000   0.5750000  )

     number of k points=     1
                       cart. coord. in units 2pi/alat
        k(    1) = (   0.0000000   0.0000000   0.0000000), wk =   2.0000000

     Dense  grid:   350738 G-vectors     FFT dimensions: ( 120, 120, 120)

     Smooth grid:    88755 G-vectors     FFT dimensions: (  72,  72,  72)

     Estimated max dynamical RAM per process >     270.62MB

     Initial potential from superposition of free atoms
     Check: negative starting charge=   -0.000775

     starting charge    7.80759, renormalised to    8.00000

     negative rho (up, down):  7.936E-04 0.000E+00
     Starting wfc are    6 randomized atomic wfcs

     total cpu time spent up to now is        3.2 secs

     per-process dynamical memory:   629.7 Mb

     Self-consistent Calculation

     iteration #  1     ecut=    30.00 Ry     beta=0.70
     Davidson diagonalization with overlap
     ethr =  1.00E-02,  avg # of iterations =  2.0

     negative rho (up, down):  2.595E-04 0.000E+00

     add environment contribution to local potential
     polarization accuracy = 4.3E-06, # of iterations =  28

     total cpu time spent up to now is       11.1 secs

     total energy              =     -34.06236055 Ry
     Harris-Foulkes estimate   =     -34.58697711 Ry
     estimated scf accuracy    <       0.68458994 Ry
     electrostatic embedding   =       0.00000000 Ry
     correction to one-el term =       0.00000000 Ry

     iteration #  2     ecut=    30.00 Ry     beta=0.70
     Davidson diagonalization with overlap
     ethr =  8.56E-03,  avg # of iterations =  2.0

     negative rho (up, down):  2.535E-03 0.000E+00

     add environment contribution to local potential
     polarization accuracy = 6.3E-06, # of iterations =  28

     total cpu time spent up to now is       19.1 secs

     total energy              =     -34.23178200 Ry
     Harris-Foulkes estimate   =     -33.85192798 Ry
     estimated scf accuracy    <       0.33150626 Ry
     electrostatic embedding   =      -0.04910504 Ry
     correction to one-el term =      -0.50278976 Ry

     iteration #  3     ecut=    30.00 Ry     beta=0.70
     Davidson diagonalization with overlap
     ethr =  4.14E-03,  avg # of iterations =  2.0

     negative rho (up, down):  1.850E-04 0.000E+00

     add environment contribution to local potential
     polarization accuracy = 2.5E-06, # of iterations =  29

     total cpu time spent up to now is       27.0 secs

     total energy              =     -34.29716915 Ry
     Harris-Foulkes estimate   =     -33.89574808 Ry
     estimated scf accuracy    <       0.01635994 Ry
     electrostatic embedding   =      -0.04434534 Ry
     correction to one-el term =      -0.36641074 Ry

     iteration #  4     ecut=    30.00 Ry     beta=0.70
     Davidson diagonalization with overlap
     ethr =  2.04E-04,  avg # of iterations =  2.0

     negative rho (up, down):  2.124E-04 0.000E+00

     total cpu time spent up to now is       29.3 secs

     End of self-consistent calculation

          k = 0.0000 0.0000 0.0000 ( 11060 PWs)   bands (ev):

   -24.3467 -12.0524  -8.6336  -6.6999

     highest occupied level (ev):    -6.6999

!    total energy              =     -34.30811143 Ry
     Harris-Foulkes estimate   =     -34.10622122 Ry
     estimated scf accuracy    <       0.00018674 Ry

     The total energy is the sum of the following terms:

     one-electron contribution =     -63.77269631 Ry
     hartree contribution      =      33.51103677 Ry
     xc contribution           =      -8.40189065 Ry
     ewald contribution        =       4.55735774 Ry
     electrostatic embedding   =      -0.05118965 Ry
     correction to one-el term =      -0.15072934 Ry

     convergence has been achieved in   4 iterations

     Forces acting on atoms (cartesian axes, Ry/au):

     atom    1 type  2   force =     0.00052131   -0.01093245   -0.00000318
     atom    2 type  1   force =    -0.00396945    0.00452513    0.00000139
     atom    3 type  1   force =     0.00344814    0.00640732    0.00000179

     Total force =     0.014456     Total SCF correction =     0.022038
     SCF correction compared to forces is large: reduce conv_thr to get better values

     Writing output data file pwscf.save
 
     init_run     :      2.44s CPU      3.09s WALL (       1 calls)
     electrons    :     18.53s CPU     27.80s WALL (       1 calls)
     forces       :      0.72s CPU      0.96s WALL (       1 calls)

     Called by init_run:
     wfcinit      :      0.04s CPU      0.04s WALL (       1 calls)
     potinit      :      0.84s CPU      1.07s WALL (       1 calls)

     Called by electrons:
     c_bands      :      0.28s CPU      0.28s WALL (       4 calls)
     sum_band     :      1.41s CPU      2.02s WALL (       4 calls)
     v_of_rho     :      2.95s CPU      3.65s WALL (       5 calls)
     newd         :      0.66s CPU      1.40s WALL (       5 calls)
     mix_rho      :      0.29s CPU      0.29s WALL (       4 calls)

     Called by c_bands:
     init_us_2    :      0.02s CPU      0.02s WALL (       9 calls)
     regterg      :      0.26s CPU      0.26s WALL (       4 calls)

     Called by sum_band:
     sum_band:bec :      0.00s CPU      0.00s WALL (       4 calls)
     addusdens    :      0.86s CPU      1.47s WALL (       4 calls)

     Called by *egterg:
     h_psi        :      0.26s CPU      0.27s WALL (      13 calls)
     s_psi        :      0.01s CPU      0.00s WALL (      13 calls)
     g_psi        :      0.00s CPU      0.00s WALL (       8 calls)
     rdiaghg      :      0.00s CPU      0.00s WALL (      12 calls)

     Called by h_psi:
     h_psi:pot    :      0.26s CPU      0.27s WALL (      13 calls)
     h_psi:calbec :      0.00s CPU      0.01s WALL (      13 calls)
     vloc_psi     :      0.26s CPU      0.26s WALL (      13 calls)
     add_vuspsi   :      0.00s CPU      0.00s WALL (      13 calls)

     General routines
     calbec       :      0.01s CPU      0.01s WALL (      21 calls)
     fft          :      8.99s CPU     11.31s WALL (     299 calls)
     ffts         :      0.06s CPU      0.05s WALL (       9 calls)
     fftw         :      0.25s CPU      0.23s WALL (      62 calls)
     interpolate  :      0.38s CPU      0.48s WALL (       9 calls)
     davcio       :      0.00s CPU      0.00s WALL (       1 calls)
 
     Parallel routines
     fft_scatter  :      2.02s CPU      3.19s WALL (     370 calls)
 
     Environ routines
     calc_eelect  :      0.00s CPU      0.01s WALL (       8 calls)
     calc_velect  :     10.15s CPU     15.35s WALL (       6 calls)
     dielectric   :      1.07s CPU      1.27s WALL (       5 calls)
     calc_felect  :      0.28s CPU      0.33s WALL (       1 calls)
 
     PWSCF        :    21.92s CPU        34.39s WALL

 
   This run was terminated on:  16:41:20  14Nov2017            

=------------------------------------------------------------------------------=
   JOB DONE.
=------------------------------------------------------------------------------=

%%%% IONS %%%%%%%%%%%%%%%%%%%%%%%%%%%%%%%%%%%%%%%%%%%%%%%%%%%%%%%%%%%%%%%%%%%%%%
 number of ions             =          3
 ionic center of charge     =      0.5921875     0.5886250     0.5750000
 total ionic charge         =     -8.0000000
 ionic dipole               =      0.0000000     0.0000000     0.0000000
 ionic quadrupole (pc)      =     -4.2453875    -2.0049500     0.0000000
 ionic quadrupole (gauss)   =     -5.2453875    -3.0049500    -1.0000000
 ion   1 type =  2 coordinates =     11.7900000    12.0500000    11.5000000
 ion   2 type =  1 coordinates =     13.4500000    11.2200000    11.5000000
 ion   3 type =  1 coordinates =     10.5600000    10.6600000    11.5000000

%%%% SYSTEM %%%%%%%%%%%%%%%%%%%%%%%%%%%%%%%%%%%%%%%%%%%%%%%%%%%%%%%%%%%%%%%%%%%%
 system is built from all present ionic types
 system defined dimension   =  0 
 system defined axis        =  3 
 system center              =      0.5921875     0.5886250     0.5750000 
 system width               =      0.1209428 

%%%% ELECTRONS %%%%%%%%%%%%%%%%%%%%%%%%%%%%%%%%%%%%%%%%%%%%%%%%%%%%%%%%%%%%%%%%%
 number of electrons        =          8
 total electronic charge    =      8.0000000
 number of spin components  =  1

%%%% BOUNDARY %%%%%%%%%%%%%%%%%%%%%%%%%%%%%%%%%%%%%%%%%%%%%%%%%%%%%%%%%%%%%%%%%%
 boundary mode              = electronic           
 boundary is built as a function of a smooth density
 function type              =  2 
 using the modified SCCS function with parameters 
 rhomax                     =      0.0050000 
 rhomin                     =      0.0001000 
 volume of the QM region    =    235.1334505 
 surface of the QM region   =    183.0212450 

%%%% DIELECTRIC %%%%%%%%%%%%%%%%%%%%%%%%%%%%%%%%%%%%%%%%%%%%%%%%%%%%%%%%%%%%%%%%%
 dielectric build in the presence of dielectric regions
 environment bulk permitt.  =      1.0000000 
 number of dielec. regions  =    1 
 dielectric flags
 need gradient              =  F 
 need factor depend. sqrt   =  T 
 need gradient of logarithm =  T 

%%%% COMPUTE ELECTROSTATIC POTENTIAL %%%%%%%%%%%%%%%%%%%%%%%%%%%%%%%%%%%%%%%%%%%
 Iteration #          1
  pAp =    27.2659203757988       rzold =    26.1752582811640       alpha = 
  0.959999072849825     
 delta_qm =   0.140564E-01 delta_en =   0.341422E+03 tol =   0.100000E-04
 Iteration #          2
  pAp =    87.6005546003779       rzold =    8.55067697997698       alpha = 
  9.760984983467322E-002
 delta_qm =   0.424541E-02 delta_en =   0.311446E+02 tol =   0.100000E-04
 Iteration #          3
  pAp =    4.01611854960208       rzold =   0.545572364113822       alpha = 
  0.135845682186816     
 delta_qm =   0.112377E-02 delta_en =   0.218223E+01 tol =   0.100000E-04
 Iteration #          4
  pAp =   0.300016007917868       rzold =   4.323854967331435E-002  alpha = 
  0.144120808664154     
 delta_qm =   0.474963E-03 delta_en =   0.389819E+00 tol =   0.100000E-04
 Iteration #          5
  pAp =   8.627923021586969E-003  rzold =   1.895084593456866E-003  alpha = 
  0.219645514768199     
 delta_qm =   0.307587E-03 delta_en =   0.163485E+00 tol =   0.100000E-04
 Iteration #          6
  pAp =   4.360898703374839E-004  rzold =   2.362246917848925E-004  alpha = 
  0.541688096543223     
 delta_qm =   0.187736E-03 delta_en =   0.609032E-01 tol =   0.100000E-04
 Iteration #          7
  pAp =   4.366756316078381E-004  rzold =   1.877530996417378E-004  alpha = 
  0.429960103224518     
 delta_qm =   0.202146E-03 delta_en =   0.706116E-01 tol =   0.100000E-04
 Iteration #          8
  pAp =   2.293430256199394E-004  rzold =   1.209413485438695E-004  alpha = 
  0.527338244609583     
 delta_qm =   0.212069E-03 delta_en =   0.777137E-01 tol =   0.100000E-04
 Iteration #          9
  pAp =   1.596344784710494E-004  rzold =   1.346711968777566E-004  alpha = 
  0.843622243563003     
 delta_qm =   0.169466E-03 delta_en =   0.496260E-01 tol =   0.100000E-04
 Iteration #         10
  pAp =   1.210884596129472E-003  rzold =   2.730321667655982E-004  alpha = 
  0.225481575732593     
 delta_qm =   0.113588E-03 delta_en =   0.222952E-01 tol =   0.100000E-04
 Iteration #         11
  pAp =   3.081012834549098E-004  rzold =   9.275818428741680E-005  alpha = 
  0.301063933415882     
 delta_qm =   0.687971E-04 delta_en =   0.817870E-02 tol =   0.100000E-04
 Iteration #         12
  pAp =   6.940070886477010E-005  rzold =   2.208742814186414E-005  alpha = 
  0.318259402579048     
 delta_qm =   0.552207E-04 delta_en =   0.526924E-02 tol =   0.100000E-04
 Iteration #         13
  pAp =   3.274098408450334E-006  rzold =   4.727842611843134E-006  alpha = 
   1.44401359459469     
 delta_qm =   0.406724E-04 delta_en =   0.285853E-02 tol =   0.100000E-04
 Iteration #         14
  pAp =   2.710297509883647E-005  rzold =   9.827962237410529E-006  alpha = 
  0.362615624357506     
 delta_qm =   0.443131E-04 delta_en =   0.339320E-02 tol =   0.100000E-04
 Iteration #         15
  pAp =   1.219853422191439E-005  rzold =   4.233270259229129E-006  alpha = 
  0.347031059815708     
 delta_qm =   0.341052E-04 delta_en =   0.200995E-02 tol =   0.100000E-04
 Iteration #         16
  pAp =   8.800054255289462E-006  rzold =   2.643324427342529E-006  alpha = 
  0.300375923904526     
 delta_qm =   0.212884E-04 delta_en =   0.783125E-03 tol =   0.100000E-04
 Iteration #         17
  pAp =   4.433668654928006E-006  rzold =   1.319276296933684E-006  alpha = 
  0.297558613331944     
 delta_qm =   0.134089E-04 delta_en =   0.310694E-03 tol =   0.100000E-04
 Iteration #         18
  pAp =   1.237479484678549E-006  rzold =   7.488439483563438E-007  alpha = 
  0.605136454889081     
 delta_qm =   0.165899E-04 delta_en =   0.475586E-03 tol =   0.100000E-04
 Iteration #         19
  pAp =   5.059990208389930E-007  rzold =   4.657688012251407E-007  alpha = 
  0.920493483273650     
 delta_qm =   0.210912E-04 delta_en =   0.768682E-03 tol =   0.100000E-04
 Iteration #         20
  pAp =   1.632816870021399E-006  rzold =   1.111547312340421E-006  alpha = 
  0.680754426750780     
 delta_qm =   0.223103E-04 delta_en =   0.860114E-03 tol =   0.100000E-04
 Iteration #         21
  pAp =   2.045457194182322E-006  rzold =   1.496087587859560E-006  alpha = 
  0.731419651369251     
 delta_qm =   0.234863E-04 delta_en =   0.953172E-03 tol =   0.100000E-04
 Iteration #         22
  pAp =   1.389403012617648E-006  rzold =   9.820819956227519E-007  alpha = 
  0.706837387499614     
 delta_qm =   0.188926E-04 delta_en =   0.616774E-03 tol =   0.100000E-04
 Iteration #         23
  pAp =   2.392350133684181E-006  rzold =   7.100005831161279E-007  alpha = 
  0.296779544565552     
 delta_qm =   0.154736E-04 delta_en =   0.413739E-03 tol =   0.100000E-04
 Iteration #         24
  pAp =   4.617933065868661E-006  rzold =   1.052973142987842E-006  alpha = 
  0.228018277434641     
 delta_qm =   0.100632E-04 delta_en =   0.174990E-03 tol =   0.100000E-04
 Iteration #         25
  pAp =   1.157595559640123E-006  rzold =   4.242265156970465E-007  alpha = 
  0.366472134558750     
 delta_qm =   0.682837E-05 delta_en =   0.805709E-04 tol =   0.100000E-04
 Iteration #         26
  pAp =   2.889170082899654E-007  rzold =   1.146150982376042E-007  alpha = 
  0.396705956897398     
 delta_qm =   0.538356E-05 delta_en =   0.500821E-04 tol =   0.100000E-04
 Iteration #         27
  pAp =   8.590050882346200E-008  rzold =   5.128566817578855E-008  alpha = 
  0.597035673923516     
 delta_qm =   0.320895E-05 delta_en =   0.177939E-04 tol =   0.100000E-04
 Iteration #         28
  pAp =   5.921988952554026E-008  rzold =   2.891135515975387E-008  alpha = 
  0.488203463251734     
 delta_qm =   0.158455E-05 delta_en =   0.433867E-05 tol =   0.100000E-04
 Charges are converged, EXIT

%%%% ELECTRONS %%%%%%%%%%%%%%%%%%%%%%%%%%%%%%%%%%%%%%%%%%%%%%%%%%%%%%%%%%%%%%%%%
 number of electrons        =          8
 total electronic charge    =      8.0000000
 number of spin components  =  1

%%%% BOUNDARY %%%%%%%%%%%%%%%%%%%%%%%%%%%%%%%%%%%%%%%%%%%%%%%%%%%%%%%%%%%%%%%%%%
 boundary mode              = electronic           
 boundary is built as a function of a smooth density
 function type              =  2 
 using the modified SCCS function with parameters 
 rhomax                     =      0.0050000 
 rhomin                     =      0.0001000 
 volume of the QM region    =    263.9819781 
 surface of the QM region   =    197.7642890 

%%%% DIELECTRIC %%%%%%%%%%%%%%%%%%%%%%%%%%%%%%%%%%%%%%%%%%%%%%%%%%%%%%%%%%%%%%%%%
 dielectric build in the presence of dielectric regions
 environment bulk permitt.  =      1.0000000 
 number of dielec. regions  =    1 
 dielectric flags
 need gradient              =  F 
 need factor depend. sqrt   =  T 
 need gradient of logarithm =  T 

%%%% COMPUTE ELECTROSTATIC POTENTIAL %%%%%%%%%%%%%%%%%%%%%%%%%%%%%%%%%%%%%%%%%%%
 Warning: bad guess with residual norm =   0.809360E+01, reset to no guess
 Iteration #          1
  pAp =    29.3995942505818       rzold =    28.5370795342109       alpha = 
  0.970662359860501     
 delta_qm =   0.133183E-01 delta_en =   0.306506E+03 tol =   0.100000E-04
 Iteration #          2
  pAp =    67.4605223494938       rzold =    6.72723713637516       alpha = 
  9.972109467998566E-002
 delta_qm =   0.366067E-02 delta_en =   0.231561E+02 tol =   0.100000E-04
 Iteration #          3
  pAp =    2.66625544042134       rzold =   0.385873803890453       alpha = 
  0.144724994477451     
 delta_qm =   0.918509E-03 delta_en =   0.145784E+01 tol =   0.100000E-04
 Iteration #          4
  pAp =   0.210692719616309       rzold =   2.945892755606546E-002  alpha = 
  0.139819390103810     
 delta_qm =   0.434522E-03 delta_en =   0.326262E+00 tol =   0.100000E-04
 Iteration #          5
  pAp =   5.651230544229948E-003  rzold =   1.275592323238915E-003  alpha = 
  0.225719392131565     
 delta_qm =   0.307086E-03 delta_en =   0.162953E+00 tol =   0.100000E-04
 Iteration #          6
  pAp =   3.175970904210389E-004  rzold =   1.979677118468159E-004  alpha = 
  0.623329740157159     
 delta_qm =   0.207002E-03 delta_en =   0.740445E-01 tol =   0.100000E-04
 Iteration #          7
  pAp =   5.728498208556386E-004  rzold =   2.329553635813723E-004  alpha = 
  0.406660445897352     
 delta_qm =   0.254954E-03 delta_en =   0.112323E+00 tol =   0.100000E-04
 Iteration #          8
  pAp =   1.682159154388200E-004  rzold =   1.355221687324473E-004  alpha = 
  0.805644153104744     
 delta_qm =   0.257876E-03 delta_en =   0.114912E+00 tol =   0.100000E-04
 Iteration #          9
  pAp =   2.547267401507438E-004  rzold =   2.110156246407647E-004  alpha = 
  0.828399972911712     
 delta_qm =   0.161591E-03 delta_en =   0.451212E-01 tol =   0.100000E-04
 Iteration #         10
  pAp =   4.935199956313149E-004  rzold =   1.661165356345024E-004  alpha = 
  0.336595349945253     
 delta_qm =   0.101137E-03 delta_en =   0.176750E-01 tol =   0.100000E-04
 Iteration #         11
  pAp =   1.988875369386584E-004  rzold =   4.918095717711520E-005  alpha = 
  0.247280236530275     
 delta_qm =   0.910483E-04 delta_en =   0.143248E-01 tol =   0.100000E-04
 Iteration #         12
  pAp =   9.139223395565304E-005  rzold =   2.843159096290053E-005  alpha = 
  0.311094167768091     
 delta_qm =   0.866724E-04 delta_en =   0.129809E-01 tol =   0.100000E-04
 Iteration #         13
  pAp =   1.623107348589137E-005  rzold =   1.815265726275355E-005  alpha = 
   1.11838919825805     
 delta_qm =   0.790364E-04 delta_en =   0.107944E-01 tol =   0.100000E-04
 Iteration #         14
  pAp =   9.726132099668009E-005  rzold =   4.037672595339476E-005  alpha = 
  0.415136516136491     
 delta_qm =   0.925486E-04 delta_en =   0.148007E-01 tol =   0.100000E-04
 Iteration #         15
  pAp =   4.213557879608772E-005  rzold =   1.599787239876995E-005  alpha = 
  0.379676104040022     
 delta_qm =   0.756333E-04 delta_en =   0.988484E-02 tol =   0.100000E-04
 Iteration #         16
  pAp =   1.541113334414586E-005  rzold =   9.681225543104615E-006  alpha = 
  0.628196857876268     
 delta_qm =   0.506733E-04 delta_en =   0.443713E-02 tol =   0.100000E-04
 Iteration #         17
  pAp =   1.520095517445446E-005  rzold =   7.885796730151014E-006  alpha = 
  0.518769816741732     
 delta_qm =   0.608862E-04 delta_en =   0.640592E-02 tol =   0.100000E-04
 Iteration #         18
  pAp =   3.213070812641062E-005  rzold =   1.484020605424916E-005  alpha = 
  0.461869872144240     
 delta_qm =   0.956298E-04 delta_en =   0.158027E-01 tol =   0.100000E-04
 Iteration #         19
  pAp =   3.306696322416868E-005  rzold =   1.546395515911402E-005  alpha = 
  0.467655740089595     
 delta_qm =   0.106757E-03 delta_en =   0.196940E-01 tol =   0.100000E-04
 Iteration #         20
  pAp =   2.857106171662736E-005  rzold =   1.789774971286674E-005  alpha = 
  0.626429283250992     
 delta_qm =   0.732512E-04 delta_en =   0.927199E-02 tol =   0.100000E-04
 Iteration #         21
  pAp =   1.942829918842396E-005  rzold =   1.034366745499836E-005  alpha = 
  0.532402108629327     
 delta_qm =   0.478618E-04 delta_en =   0.395842E-02 tol =   0.100000E-04
 Iteration #         22
  pAp =   8.146440728168834E-006  rzold =   3.761701827057753E-006  alpha = 
  0.461760166504435     
 delta_qm =   0.320391E-04 delta_en =   0.177380E-02 tol =   0.100000E-04
 Iteration #         23
  pAp =   2.158350516630182E-006  rzold =   1.513451937571038E-006  alpha = 
  0.701207670352812     
 delta_qm =   0.193027E-04 delta_en =   0.643846E-03 tol =   0.100000E-04
 Iteration #         24
  pAp =   8.176615607012360E-006  rzold =   1.407346667791196E-006  alpha = 
  0.172118482197480     
 delta_qm =   0.157828E-04 delta_en =   0.430439E-03 tol =   0.100000E-04
 Iteration #         25
  pAp =   2.827323542217704E-006  rzold =   9.181155795757927E-007  alpha = 
  0.324729577590416     
 delta_qm =   0.126920E-04 delta_en =   0.278358E-03 tol =   0.100000E-04
 Iteration #         26
  pAp =   5.485008955065665E-007  rzold =   2.164715953223921E-007  alpha = 
  0.394660422791964     
 delta_qm =   0.910063E-05 delta_en =   0.143116E-03 tol =   0.100000E-04
 Iteration #         27
  pAp =   2.593002101339237E-007  rzold =   1.158421166978977E-007  alpha = 
  0.446749027461518     
 delta_qm =   0.469672E-05 delta_en =   0.381182E-04 tol =   0.100000E-04
 Iteration #         28
  pAp =   5.661211149955055E-008  rzold =   2.910131658415796E-008  alpha = 
  0.514047538827253     
 delta_qm =   0.191054E-05 delta_en =   0.630750E-05 tol =   0.100000E-04
 Charges are converged, EXIT

%%%% ELECTRONS %%%%%%%%%%%%%%%%%%%%%%%%%%%%%%%%%%%%%%%%%%%%%%%%%%%%%%%%%%%%%%%%%
 number of electrons        =          8
 total electronic charge    =      8.0000000
 number of spin components  =  1

%%%% BOUNDARY %%%%%%%%%%%%%%%%%%%%%%%%%%%%%%%%%%%%%%%%%%%%%%%%%%%%%%%%%%%%%%%%%%
 boundary mode              = electronic           
 boundary is built as a function of a smooth density
 function type              =  2 
 using the modified SCCS function with parameters 
 rhomax                     =      0.0050000 
 rhomin                     =      0.0001000 
 volume of the QM region    =    242.8837750 
 surface of the QM region   =    187.4112517 

%%%% DIELECTRIC %%%%%%%%%%%%%%%%%%%%%%%%%%%%%%%%%%%%%%%%%%%%%%%%%%%%%%%%%%%%%%%%%
 dielectric build in the presence of dielectric regions
 environment bulk permitt.  =      1.0000000 
 number of dielec. regions  =    1 
 dielectric flags
 need gradient              =  F 
 need factor depend. sqrt   =  T 
 need gradient of logarithm =  T 

%%%% COMPUTE ELECTROSTATIC POTENTIAL %%%%%%%%%%%%%%%%%%%%%%%%%%%%%%%%%%%%%%%%%%%
 Warning: bad guess with residual norm =   0.202882E+03, reset to no guess
 Iteration #          1
  pAp =    29.2462710806034       rzold =    28.3993835709564       alpha = 
  0.971042889286197     
 delta_qm =   0.139326E-01 delta_en =   0.335433E+03 tol =   0.100000E-04
 Iteration #          2
  pAp =    58.8912923737964       rzold =    6.16826332226374       alpha = 
  0.104739819311697     
 delta_qm =   0.371774E-02 delta_en =   0.238837E+02 tol =   0.100000E-04
 Iteration #          3
  pAp =    3.84835963282381       rzold =   0.481994814640140       alpha = 
  0.125246822186020     
 delta_qm =   0.109945E-02 delta_en =   0.208878E+01 tol =   0.100000E-04
 Iteration #          4
  pAp =   0.308831126030264       rzold =   4.190896953459208E-002  alpha = 
  0.135701896610270     
 delta_qm =   0.474775E-03 delta_en =   0.389510E+00 tol =   0.100000E-04
 Iteration #          5
  pAp =   6.871777717287531E-003  rzold =   1.523402859816544E-003  alpha = 
  0.221689775556051     
 delta_qm =   0.341447E-03 delta_en =   0.201460E+00 tol =   0.100000E-04
 Iteration #          6
  pAp =   3.627059386524866E-004  rzold =   2.492619485084531E-004  alpha = 
  0.687228749092179     
 delta_qm =   0.230728E-03 delta_en =   0.919910E-01 tol =   0.100000E-04
 Iteration #          7
  pAp =   7.515623742036579E-004  rzold =   3.150249073404230E-004  alpha = 
  0.419160030029734     
 delta_qm =   0.314163E-03 delta_en =   0.170551E+00 tol =   0.100000E-04
 Iteration #          8
  pAp =   2.751869024595737E-004  rzold =   2.110090720162281E-004  alpha = 
  0.766784574884433     
 delta_qm =   0.324411E-03 delta_en =   0.181859E+00 tol =   0.100000E-04
 Iteration #          9
  pAp =   4.600370673492907E-004  rzold =   3.338919486243983E-004  alpha = 
  0.725793576913847     
 delta_qm =   0.209236E-03 delta_en =   0.756512E-01 tol =   0.100000E-04
 Iteration #         10
  pAp =   1.790895000494112E-003  rzold =   3.610483351901885E-004  alpha = 
  0.201602179407824     
 delta_qm =   0.152364E-03 delta_en =   0.401151E-01 tol =   0.100000E-04
 Iteration #         11
  pAp =   4.830210582997575E-004  rzold =   1.364474784461438E-004  alpha = 
  0.282487639206542     
 delta_qm =   0.117932E-03 delta_en =   0.240329E-01 tol =   0.100000E-04
 Iteration #         12
  pAp =   5.832568869467980E-005  rzold =   3.269751700753838E-005  alpha = 
  0.560602330453423     
 delta_qm =   0.114559E-03 delta_en =   0.226780E-01 tol =   0.100000E-04
 Iteration #         13
  pAp =   3.447728491730954E-005  rzold =   3.800666284701386E-005  alpha = 
   1.10236820962466     
 delta_qm =   0.117822E-03 delta_en =   0.239880E-01 tol =   0.100000E-04
 Iteration #         14
  pAp =   2.190230710002521E-004  rzold =   8.157605008754267E-005  alpha = 
  0.372454142456293     
 delta_qm =   0.136346E-03 delta_en =   0.321239E-01 tol =   0.100000E-04
 Iteration #         15
  pAp =   5.878595237739610E-005  rzold =   2.831049059988896E-005  alpha = 
  0.481585981939023     
 delta_qm =   0.102547E-03 delta_en =   0.181715E-01 tol =   0.100000E-04
 Iteration #         16
  pAp =   4.151249725840397E-005  rzold =   2.452914549276137E-005  alpha = 
  0.590885808195882     
 delta_qm =   0.779486E-04 delta_en =   0.104993E-01 tol =   0.100000E-04
 Iteration #         17
  pAp =   2.122320691719769E-005  rzold =   1.870941448928392E-005  alpha = 
  0.881554543678468     
 delta_qm =   0.125213E-03 delta_en =   0.270919E-01 tol =   0.100000E-04
 Iteration #         18
  pAp =   9.264569310976768E-005  rzold =   3.569804414477083E-005  alpha = 
  0.385317902500609     
 delta_qm =   0.152972E-03 delta_en =   0.404361E-01 tol =   0.100000E-04
 Iteration #         19
  pAp =   8.550663426806243E-005  rzold =   3.894168491493564E-005  alpha = 
  0.455422965109980     
 delta_qm =   0.132879E-03 delta_en =   0.305108E-01 tol =   0.100000E-04
 Iteration #         20
  pAp =   1.292042350116086E-004  rzold =   4.229247377444798E-005  alpha = 
  0.327330398811216     
 delta_qm =   0.861342E-04 delta_en =   0.128202E-01 tol =   0.100000E-04
 Iteration #         21
  pAp =   3.219655384730008E-005  rzold =   1.648469558048201E-005  alpha = 
  0.512001863884708     
 delta_qm =   0.514626E-04 delta_en =   0.457643E-02 tol =   0.100000E-04
 Iteration #         22
  pAp =   7.156462676003298E-006  rzold =   4.479799136074337E-006  alpha = 
  0.625979529117895     
 delta_qm =   0.360904E-04 delta_en =   0.225075E-02 tol =   0.100000E-04
 Iteration #         23
  pAp =   8.874967494390595E-006  rzold =   2.977037871209823E-006  alpha = 
  0.335442115488474     
 delta_qm =   0.276602E-04 delta_en =   0.132207E-02 tol =   0.100000E-04
 Iteration #         24
  pAp =   2.316394304010533E-005  rzold =   3.978296583322474E-006  alpha = 
  0.171745223878101     
 delta_qm =   0.216163E-04 delta_en =   0.807435E-03 tol =   0.100000E-04
 Iteration #         25
  pAp =   3.341133134684013E-006  rzold =   1.254520659794481E-006  alpha = 
  0.375477602724480     
 delta_qm =   0.133557E-04 delta_en =   0.308232E-03 tol =   0.100000E-04
 Iteration #         26
  pAp =   8.238971734673027E-007  rzold =   3.583341811952132E-007  alpha = 
  0.434925853292097     
 delta_qm =   0.839632E-05 delta_en =   0.121821E-03 tol =   0.100000E-04
 Iteration #         27
  pAp =   4.314990664567259E-007  rzold =   1.693598414422396E-007  alpha = 
  0.392491791078358     
 delta_qm =   0.549311E-05 delta_en =   0.521412E-04 tol =   0.100000E-04
 Iteration #         28
  pAp =   9.545395349918672E-008  rzold =   5.064130344673598E-008  alpha = 
  0.530531230926621     
 delta_qm =   0.269450E-05 delta_en =   0.125458E-04 tol =   0.100000E-04
 Iteration #         29
  pAp =   2.511788810339599E-008  rzold =   1.156107336556058E-008  alpha = 
  0.460272508499530     
 delta_qm =   0.121301E-05 delta_en =   0.254255E-05 tol =   0.100000E-04
 Charges are converged, EXIT

%%%% ELECTRONS %%%%%%%%%%%%%%%%%%%%%%%%%%%%%%%%%%%%%%%%%%%%%%%%%%%%%%%%%%%%%%%%%
 number of electrons        =          8
 total electronic charge    =      8.0000000
 number of spin components  =  1

%%%% BOUNDARY %%%%%%%%%%%%%%%%%%%%%%%%%%%%%%%%%%%%%%%%%%%%%%%%%%%%%%%%%%%%%%%%%%
 boundary mode              = electronic           
 boundary is built as a function of a smooth density
 function type              =  2 
 using the modified SCCS function with parameters 
 rhomax                     =      0.0050000 
 rhomin                     =      0.0001000 
 volume of the QM region    =    242.8837750 
 surface of the QM region   =    187.4112517 

%%%% DIELECTRIC %%%%%%%%%%%%%%%%%%%%%%%%%%%%%%%%%%%%%%%%%%%%%%%%%%%%%%%%%%%%%%%%%
 dielectric build in the presence of dielectric regions
 environment bulk permitt.  =      1.0000000 
 number of dielec. regions  =    1 
 dielectric flags
 need gradient              =  F 
 need factor depend. sqrt   =  T 
 need gradient of logarithm =  T 
