
     Program PWSCF v.6.1 (svn rev. 13369) starts on  1Feb2018 at 12:31:10 

     This program is part of the open-source Quantum ESPRESSO suite
     for quantum simulation of materials; please cite
         "P. Giannozzi et al., J. Phys.:Condens. Matter 21 395502 (2009);
          URL http://www.quantum-espresso.org", 
     in publications or presentations arising from this work. More details at
     http://www.quantum-espresso.org/quote

     Parallel version (MPI), running on     1 processors
     Reading input from pw.in

     Current dimensions of program PWSCF are:
     Max number of different atomic species (ntypx) = 10
     Max number of k-points (npk) =  40000
     Max angular momentum in pseudopotentials (lmaxx) =  3
               file H.pbe-rrkjus.UPF: wavefunction(s)  1S renormalized
               file O.pbe-rrkjus.UPF: wavefunction(s)  2S renormalized

     gamma-point specific algorithms are used

     Subspace diagonalization in iterative solution of the eigenvalue problem:
     a serial algorithm will be used

 
     G-vector sticks info
     --------------------
     sticks:   dense  smooth     PW     G-vecs:    dense   smooth      PW
     Sum        9549    3809    949               701475   177509   22119
 


     bravais-lattice index     =            1
     lattice parameter (alat)  =      20.0000  a.u.
     unit-cell volume          =    8000.0000 (a.u.)^3
     number of atoms/cell      =            3
     number of atomic types    =            2
     number of electrons       =         8.00
     number of Kohn-Sham states=            4
     kinetic-energy cutoff     =      30.0000  Ry
     charge density cutoff     =     300.0000  Ry
     convergence threshold     =      5.0E-03
     mixing beta               =       0.7000
     number of iterations used =            8  plain     mixing
     Exchange-correlation      =  SLA  PW   PBE  PBE ( 1  4  3  4 0 0)
 

     Environ Module
     ==============

     Plese cite
         O. Andreussi, I. Dabo and N. Marzari, J. Chem. Phys. 136, 064102 (2012)         
     in publications or presentations arising from this work.

     compensation onset threshold      =               0.1000E+03 

     Electrostatic Setup
     -------------------
     electrostatic problem to solve    = generalized              
     numerical solver adopted          = cg                       
     type of auxiliary density adopted = none                     
     type of core tool for poisson     = fft                      
     type of core tool for s(r) deriv  = analytic                 



     celldm(1)=  20.000000  celldm(2)=   0.000000  celldm(3)=   0.000000
     celldm(4)=   0.000000  celldm(5)=   0.000000  celldm(6)=   0.000000

     crystal axes: (cart. coord. in units of alat)
               a(1) = (   1.000000   0.000000   0.000000 )  
               a(2) = (   0.000000   1.000000   0.000000 )  
               a(3) = (   0.000000   0.000000   1.000000 )  

     reciprocal axes: (cart. coord. in units 2 pi/alat)
               b(1) = (  1.000000  0.000000  0.000000 )  
               b(2) = (  0.000000  1.000000  0.000000 )  
               b(3) = (  0.000000  0.000000  1.000000 )  


     PseudoPot. # 1 for H  read from file:
     /home/fnattino/Programs/qe-6.1/Environ/tests/../..//pseudo/H.pbe-rrkjus.UPF
     MD5 check sum: 7cc9d459525c9a0585f487a71c3c9563
     Pseudo is Ultrasoft, Zval =  1.0
     Generated by new atomic code, or converted to UPF format
     Using radial grid of 1061 points,  2 beta functions with: 
                l(1) =   0
                l(2) =   0
     Q(r) pseudized with 0 coefficients 


     PseudoPot. # 2 for O  read from file:
     /home/fnattino/Programs/qe-6.1/Environ/tests/../..//pseudo/O.pbe-rrkjus.UPF
     MD5 check sum: 390ba29e75625707450f3bd3f0eb6be9
     Pseudo is Ultrasoft, Zval =  6.0
     Generated by new atomic code, or converted to UPF format
     Using radial grid of 1269 points,  4 beta functions with: 
                l(1) =   0
                l(2) =   0
                l(3) =   1
                l(4) =   1
     Q(r) pseudized with 0 coefficients 


     atomic species   valence    mass     pseudopotential
        H              1.00     1.00000     H ( 1.00)
        O              6.00    16.00000     O ( 1.00)

     No symmetry found



   Cartesian axes

     site n.     atom                  positions (alat units)
         1           O   tau(   1) = (   0.5895000   0.6025000   0.5750000  )
         2           H   tau(   2) = (   0.6725000   0.5610000   0.5750000  )
         3           H   tau(   3) = (   0.5280000   0.5330000   0.5750000  )

     number of k points=     1
                       cart. coord. in units 2pi/alat
        k(    1) = (   0.0000000   0.0000000   0.0000000), wk =   2.0000000

     Dense  grid:   350738 G-vectors     FFT dimensions: ( 120, 120, 120)

     Smooth grid:    88755 G-vectors     FFT dimensions: (  72,  72,  72)

     Estimated max dynamical RAM per process >     270.62MB

     Initial potential from superposition of free atoms
     Check: negative starting charge=   -0.000775

     starting charge    7.80759, renormalised to    8.00000

     negative rho (up, down):  7.936E-04 0.000E+00
     Starting wfc are    6 randomized atomic wfcs

     total cpu time spent up to now is        3.2 secs

     per-process dynamical memory:   653.4 Mb

     Self-consistent Calculation

     iteration #  1     ecut=    30.00 Ry     beta=0.70
     Davidson diagonalization with overlap
     ethr =  1.00E-02,  avg # of iterations =  2.0

     negative rho (up, down):  2.595E-04 0.000E+00

     add environment contribution to local potential
     polarization accuracy = 6.1E-06, # of iterations =  63

     total cpu time spent up to now is       10.8 secs

     total energy              =     -34.06236055 Ry
     Harris-Foulkes estimate   =     -34.58697711 Ry
     estimated scf accuracy    <       0.68458994 Ry
     electrostatic embedding   =       0.00000000 Ry
     correction to one-el term =       0.00000000 Ry

     iteration #  2     ecut=    30.00 Ry     beta=0.70
     Davidson diagonalization with overlap
     ethr =  8.56E-03,  avg # of iterations =  2.0

     negative rho (up, down):  3.180E-03 0.000E+00

     add environment contribution to local potential
     polarization accuracy = 6.3E-06, # of iterations =  62

     total cpu time spent up to now is       18.5 secs

     total energy              =     -34.16634277 Ry
     Harris-Foulkes estimate   =     -34.33153687 Ry
     estimated scf accuracy    <       0.46090710 Ry
     electrostatic embedding   =      -0.00481077 Ry
     correction to one-el term =      -0.06004661 Ry

     iteration #  3     ecut=    30.00 Ry     beta=0.70
     Davidson diagonalization with overlap
     ethr =  5.76E-03,  avg # of iterations =  2.0

     negative rho (up, down):  3.139E-04 0.000E+00

     add environment contribution to local potential
     polarization accuracy = 7.9E-06, # of iterations =  63

     total cpu time spent up to now is       26.1 secs

     total energy              =     -34.26847962 Ry
     Harris-Foulkes estimate   =     -34.24526743 Ry
     estimated scf accuracy    <       0.01681130 Ry
     electrostatic embedding   =      -0.00333488 Ry
     correction to one-el term =      -0.02898991 Ry

     iteration #  4     ecut=    30.00 Ry     beta=0.70
     Davidson diagonalization with overlap
     ethr =  2.10E-04,  avg # of iterations =  2.0

     negative rho (up, down):  2.180E-04 0.000E+00

     total cpu time spent up to now is       27.5 secs

     End of self-consistent calculation

          k = 0.0000 0.0000 0.0000 ( 11060 PWs)   bands (ev):

   -25.0770 -12.9480  -9.1480  -7.1503

     highest occupied level (ev):    -7.1503

!    total energy              =     -34.27246655 Ry
     Harris-Foulkes estimate   =     -34.32359405 Ry
     estimated scf accuracy    <       0.00018465 Ry

     The total energy is the sum of the following terms:

     one-electron contribution =     -63.82186437 Ry
     hartree contribution      =      33.32102556 Ry
     xc contribution           =      -8.38006236 Ry
     ewald contribution        =       4.55735774 Ry
     electrostatic embedding   =      -0.00416787 Ry
     correction to one-el term =       0.05524475 Ry

     convergence has been achieved in   4 iterations

     Forces acting on atoms (cartesian axes, Ry/au):

     atom    1 type  2   force =     0.00301393   -0.01592495   -0.00512832
     atom    2 type  1   force =    -0.01218890    0.00584372    0.00256215
     atom    3 type  1   force =     0.00917497    0.01008123    0.00256617

     Total force =     0.025897     Total SCF correction =     0.025674
     SCF correction compared to forces is large: reduce conv_thr to get better values

     Writing output data file pwscf.save
 
     init_run     :      3.01s CPU      3.16s WALL (       1 calls)
     electrons    :     22.30s CPU     24.34s WALL (       1 calls)
     forces       :      0.32s CPU      0.37s WALL (       1 calls)

     Called by init_run:
     wfcinit      :      0.02s CPU      0.03s WALL (       1 calls)
     potinit      :      1.40s CPU      1.45s WALL (       1 calls)

     Called by electrons:
     c_bands      :      0.20s CPU      0.20s WALL (       4 calls)
     sum_band     :      0.96s CPU      1.02s WALL (       4 calls)
     v_of_rho     :      2.46s CPU      2.57s WALL (       5 calls)
     newd         :      0.54s CPU      0.61s WALL (       5 calls)
     mix_rho      :      0.19s CPU      0.19s WALL (       4 calls)

     Called by c_bands:
     init_us_2    :      0.02s CPU      0.02s WALL (       9 calls)
     regterg      :      0.18s CPU      0.18s WALL (       4 calls)

     Called by sum_band:
     sum_band:bec :      0.00s CPU      0.00s WALL (       4 calls)
     addusdens    :      0.57s CPU      0.63s WALL (       4 calls)

     Called by *egterg:
     h_psi        :      0.18s CPU      0.19s WALL (      13 calls)
     s_psi        :      0.00s CPU      0.00s WALL (      13 calls)
     g_psi        :      0.00s CPU      0.00s WALL (       8 calls)
     rdiaghg      :      0.00s CPU      0.00s WALL (      12 calls)

     Called by h_psi:
     h_psi:pot    :      0.18s CPU      0.19s WALL (      13 calls)
     h_psi:calbec :      0.00s CPU      0.00s WALL (      13 calls)
     vloc_psi     :      0.18s CPU      0.18s WALL (      13 calls)
     add_vuspsi   :      0.00s CPU      0.00s WALL (      13 calls)

     General routines
     calbec       :      0.00s CPU      0.01s WALL (      21 calls)
     fft          :     10.64s CPU     11.70s WALL (     519 calls)
     ffts         :      0.03s CPU      0.03s WALL (       9 calls)
     fftw         :      0.13s CPU      0.14s WALL (      62 calls)
     interpolate  :      0.27s CPU      0.29s WALL (       9 calls)
     davcio       :      0.00s CPU      0.00s WALL (       1 calls)
 
     Parallel routines
     fft_scatter  :      2.68s CPU      3.06s WALL (     590 calls)
 
     Environ routines
     calc_eelect  :      0.01s CPU      0.01s WALL (       8 calls)
     calc_velect  :     15.53s CPU     17.21s WALL (       6 calls)
     dielectric   :      1.06s CPU      1.09s WALL (       6 calls)
     calc_felect  :      0.04s CPU      0.05s WALL (       1 calls)
 
     PWSCF        :    25.78s CPU        28.01s WALL

 
   This run was terminated on:  12:31:38   1Feb2018            

=------------------------------------------------------------------------------=
   JOB DONE.
=------------------------------------------------------------------------------=

%%%% IONS %%%%%%%%%%%%%%%%%%%%%%%%%%%%%%%%%%%%%%%%%%%%%%%%%%%%%%%%%%%%%%%%%%%%%%
 number of ions             =          3
 ionic center of charge     =      0.5921875     0.5886250     0.5750000
 total ionic charge         =     -8.0000000
 ionic dipole               =      0.0000000     0.0000000     0.0000000
 ionic quadrupole (pc)      =     -4.2453875    -2.0049500     0.0000000
 ionic quadrupole (gauss)   =     -5.2453875    -3.0049500    -1.0000000
 ion   1 type =  2 coordinates =     11.7900000    12.0500000    11.5000000
 ion   2 type =  1 coordinates =     13.4500000    11.2200000    11.5000000
 ion   3 type =  1 coordinates =     10.5600000    10.6600000    11.5000000

%%%% SYSTEM %%%%%%%%%%%%%%%%%%%%%%%%%%%%%%%%%%%%%%%%%%%%%%%%%%%%%%%%%%%%%%%%%%%%
 system is built from all present ionic types
 system defined dimension   =  0 
 system defined axis        =  3 
 system center              =      0.5921875     0.5886250     0.5750000 
 system width               =      0.0849363 

%%%% ELECTRONS %%%%%%%%%%%%%%%%%%%%%%%%%%%%%%%%%%%%%%%%%%%%%%%%%%%%%%%%%%%%%%%%%
 number of electrons        =          7
 total electronic charge    =      8.0000000
 number of spin components  =  1

%%%% BOUNDARY %%%%%%%%%%%%%%%%%%%%%%%%%%%%%%%%%%%%%%%%%%%%%%%%%%%%%%%%%%%%%%%%%%
 boundary mode              = electronic           
 boundary is built as a function of a smooth density
 function type              =  2 
 using the modified SCCS function with parameters 
 rhomax                     =      0.0050000 
 rhomin                     =      0.0001000 
 volume of the QM region    =    547.0791350 
 surface of the QM region   =    307.1444729 

%%%% DIELECTRIC %%%%%%%%%%%%%%%%%%%%%%%%%%%%%%%%%%%%%%%%%%%%%%%%%%%%%%%%%%%%%%%%%
 dielectric build in the presence of dielectric regions
 environment bulk permitt.  =      1.0000000 
 number of dielec. regions  =    1 
 dielectric flags
 need gradient              =  F 
 need factor depend. sqrt   =  T 
 total dielectric charge    =      0.0000000

%%%% ELECTRONS %%%%%%%%%%%%%%%%%%%%%%%%%%%%%%%%%%%%%%%%%%%%%%%%%%%%%%%%%%%%%%%%%
 number of electrons        =          7
 total electronic charge    =      8.0000000
 number of spin components  =  1

%%%% BOUNDARY %%%%%%%%%%%%%%%%%%%%%%%%%%%%%%%%%%%%%%%%%%%%%%%%%%%%%%%%%%%%%%%%%%
 boundary mode              = electronic           
 boundary is built as a function of a smooth density
 function type              =  2 
 using the modified SCCS function with parameters 
 rhomax                     =      0.0050000 
 rhomin                     =      0.0001000 
 volume of the QM region    =    235.1334505 
 surface of the QM region   =    183.0212450 

%%%% DIELECTRIC %%%%%%%%%%%%%%%%%%%%%%%%%%%%%%%%%%%%%%%%%%%%%%%%%%%%%%%%%%%%%%%%%
 dielectric build in the presence of dielectric regions
 environment bulk permitt.  =      1.0000000 
 number of dielec. regions  =    1 
 dielectric flags
 need gradient              =  F 
 need factor depend. sqrt   =  T 
 total dielectric charge    =      0.0000000

%%%% COMPUTE ELECTROSTATIC POTENTIAL %%%%%%%%%%%%%%%%%%%%%%%%%%%%%%%%%%%%%%%%%%%
 Iteration #          1
  pAp =    26.1877387761651       rzold =    26.1491564022938       alpha = 
  0.998526700827395     
 delta_qm =   0.310958E-02 delta_en =   0.167089E+02 tol =   0.100000E-04
 Iteration #          2
  pAp =   0.767550190618102       rzold =   0.148690966014087       alpha = 
  0.193721489267493     
 delta_qm =   0.103497E-02 delta_en =   0.185096E+01 tol =   0.100000E-04
 Iteration #          3
  pAp =   3.493942585069617E-002  rzold =   9.168649970639049E-003  alpha = 
  0.262415587760907     
 delta_qm =   0.891108E-03 delta_en =   0.137216E+01 tol =   0.100000E-04
 Iteration #          4
  pAp =   1.104765568956067E-003  rzold =   3.372381288068556E-003  alpha = 
   3.05257638618774     
 delta_qm =   0.510245E-02 delta_en =   0.449884E+02 tol =   0.100000E-04
 Iteration #          5
  pAp =   -2.43695047147772       rzold =   0.179436941655381       alpha = 
 -7.363175565343942E-002
 delta_qm =   0.427638E-03 delta_en =   0.316006E+00 tol =   0.100000E-04
 Iteration #          6
  pAp =   7.111851559003413E-003  rzold =   1.806319696691433E-003  alpha = 
  0.253987260800555     
 delta_qm =   0.265235E-03 delta_en =   0.121564E+00 tol =   0.100000E-04
 Iteration #          7
  pAp =   3.243827810819555E-004  rzold =   2.523052977440340E-004  alpha = 
  0.777801142534409     
 delta_qm =   0.352095E-03 delta_en =   0.214221E+00 tol =   0.100000E-04
 Iteration #          8
  pAp =   3.725650607373208E-005  rzold =   4.814750425015690E-004  alpha = 
   12.9232473262176     
 delta_qm =   0.691294E-02 delta_en =   0.825790E+02 tol =   0.100000E-04
 Iteration #          9
  pAp =   -8.28194052046052       rzold =   0.237131312953536       alpha = 
 -2.863233711564378E-002
 delta_qm =   0.382199E-03 delta_en =   0.252420E+00 tol =   0.100000E-04
 Iteration #         10
  pAp =   1.810751225928461E-003  rzold =   6.462805591596669E-004  alpha = 
  0.356912948562709     
 delta_qm =   0.300031E-03 delta_en =   0.155552E+00 tol =   0.100000E-04
 Iteration #         11
  pAp =   4.287214126189518E-004  rzold =   2.786752811449238E-004  alpha = 
  0.650014841672046     
 delta_qm =   0.299877E-03 delta_en =   0.155393E+00 tol =   0.100000E-04
 Iteration #         12
  pAp =   1.100648643704834E-004  rzold =   2.688033412444114E-004  alpha = 
   2.44222661593083     
 delta_qm =   0.567726E-03 delta_en =   0.556957E+00 tol =   0.100000E-04
 Iteration #         13
  pAp =  -5.160632240604290E-004  rzold =   1.771212922153176E-003  alpha = 
  -3.43216264902026     
 delta_qm =   0.431010E-02 delta_en =   0.321010E+02 tol =   0.100000E-04
 Iteration #         14
  pAp =   0.380716064863076       rzold =   4.236509025611826E-002  alpha = 
  0.111277390596467     
 delta_qm =   0.610809E-03 delta_en =   0.644696E+00 tol =   0.100000E-04
 Iteration #         15
  pAp =   2.550353927217924E-003  rzold =   1.236147157072365E-003  alpha = 
  0.484696317589468     
 delta_qm =   0.230822E-03 delta_en =   0.920660E-01 tol =   0.100000E-04
 Iteration #         16
  pAp =   1.065055954120447E-003  rzold =   3.890513765369709E-004  alpha = 
  0.365287264985304     
 delta_qm =   0.181460E-03 delta_en =   0.568990E-01 tol =   0.100000E-04
 Iteration #         17
  pAp =   1.419431682616185E-004  rzold =   7.922642137154421E-005  alpha = 
  0.558155931996109     
 delta_qm =   0.168655E-03 delta_en =   0.491519E-01 tol =   0.100000E-04
 Iteration #         18
  pAp =   6.298247486669267E-005  rzold =   6.310959243612289E-005  alpha = 
   1.00201830064156     
 delta_qm =   0.181032E-03 delta_en =   0.566311E-01 tol =   0.100000E-04
 Iteration #         19
  pAp =   1.449262702940247E-004  rzold =   1.790334901432808E-004  alpha = 
   1.23534187266435     
 delta_qm =   0.538209E-03 delta_en =   0.500547E+00 tol =   0.100000E-04
 Iteration #         20
  pAp =  -1.441592527336283E-003  rzold =   7.933547566169871E-004  alpha = 
 -0.550332178873677     
 delta_qm =   0.416797E-03 delta_en =   0.300188E+00 tol =   0.100000E-04
 Iteration #         21
  pAp =   1.542964183284453E-003  rzold =   5.285127204451831E-004  alpha = 
  0.342530776910295     
 delta_qm =   0.150404E-03 delta_en =   0.390896E-01 tol =   0.100000E-04
 Iteration #         22
  pAp =   2.088297248514718E-004  rzold =   8.693163328717664E-005  alpha = 
  0.416279978097016     
 delta_qm =   0.123839E-03 delta_en =   0.265007E-01 tol =   0.100000E-04
 Iteration #         23
  pAp =   3.227858908742977E-005  rzold =   2.695063180427664E-005  alpha = 
  0.834938346632133     
 delta_qm =   0.840710E-04 delta_en =   0.122134E-01 tol =   0.100000E-04
 Iteration #         24
  pAp =   1.822346366689988E-005  rzold =   1.819393969660320E-005  alpha = 
  0.998379892492649     
 delta_qm =   0.854081E-04 delta_en =   0.126050E-01 tol =   0.100000E-04
 Iteration #         25
  pAp =   1.675415426560415E-005  rzold =   1.773442995953008E-005  alpha = 
   1.05850941076378     
 delta_qm =   0.871569E-04 delta_en =   0.131264E-01 tol =   0.100000E-04
 Iteration #         26
  pAp =   2.324187144266537E-005  rzold =   1.968305157916540E-005  alpha = 
  0.846878945515248     
 delta_qm =   0.864557E-04 delta_en =   0.129161E-01 tol =   0.100000E-04
 Iteration #         27
  pAp =   4.519355686438324E-005  rzold =   2.341088137395589E-005  alpha = 
  0.518013694832810     
 delta_qm =   0.990451E-04 delta_en =   0.169516E-01 tol =   0.100000E-04
 Iteration #         28
  pAp =   1.635933431925310E-005  rzold =   2.310112958879707E-005  alpha = 
   1.41210694383876     
 delta_qm =   0.155014E-03 delta_en =   0.415225E-01 tol =   0.100000E-04
 Iteration #         29
  pAp =   1.076267789519869E-005  rzold =   9.619466674436432E-005  alpha = 
   8.93780039513005     
 delta_qm =   0.253651E-02 delta_en =   0.111177E+02 tol =   0.100000E-04
 Iteration #         30
  pAp =  -0.409442673072651       rzold =   1.985565887032046E-002  alpha = 
 -4.849435629489773E-002
 delta_qm =   0.208368E-03 delta_en =   0.750250E-01 tol =   0.100000E-04
 Iteration #         31
  pAp =   1.633302253302010E-004  rzold =   9.275922009435401E-005  alpha = 
  0.567924399215300     
 delta_qm =   0.121439E-03 delta_en =   0.254835E-01 tol =   0.100000E-04
 Iteration #         32
  pAp =   9.138988165023157E-005  rzold =   5.755882273810153E-005  alpha = 
  0.629816142649044     
 delta_qm =   0.144862E-03 delta_en =   0.362623E-01 tol =   0.100000E-04
 Iteration #         33
  pAp =   1.920830009987614E-005  rzold =   4.273691771017175E-005  alpha = 
   2.22491930508975     
 delta_qm =   0.344286E-03 delta_en =   0.204825E+00 tol =   0.100000E-04
 Iteration #         34
  pAp =  -9.509393244130799E-004  rzold =   3.937467096415571E-004  alpha = 
 -0.414060812854256     
 delta_qm =   0.199460E-03 delta_en =   0.687470E-01 tol =   0.100000E-04
 Iteration #         35
  pAp =   2.619417403398903E-004  rzold =   9.056537042446400E-005  alpha = 
  0.345746234666335     
 delta_qm =   0.106568E-03 delta_en =   0.196245E-01 tol =   0.100000E-04
 Iteration #         36
  pAp =   1.080337133076780E-004  rzold =   3.494906916687108E-005  alpha = 
  0.323501507972208     
 delta_qm =   0.926581E-04 delta_en =   0.148358E-01 tol =   0.100000E-04
 Iteration #         37
  pAp =   3.045518959922892E-005  rzold =   2.271842967464579E-005  alpha = 
  0.745962509956628     
 delta_qm =   0.908044E-04 delta_en =   0.142481E-01 tol =   0.100000E-04
 Iteration #         38
  pAp =   3.338930764179592E-005  rzold =   2.332177244816566E-005  alpha = 
  0.698480264950808     
 delta_qm =   0.113004E-03 delta_en =   0.220664E-01 tol =   0.100000E-04
 Iteration #         39
  pAp =   1.299382696590015E-005  rzold =   1.549676425034259E-005  alpha = 
   1.19262510506034     
 delta_qm =   0.891849E-04 delta_en =   0.137444E-01 tol =   0.100000E-04
 Iteration #         40
  pAp =   1.336562146397717E-005  rzold =   1.514656386137552E-005  alpha = 
   1.13324800513005     
 delta_qm =   0.841402E-04 delta_en =   0.122335E-01 tol =   0.100000E-04
 Iteration #         41
  pAp =   1.630573234414962E-005  rzold =   1.258728845756208E-005  alpha = 
  0.771954806560916     
 delta_qm =   0.738815E-04 delta_en =   0.943225E-02 tol =   0.100000E-04
 Iteration #         42
  pAp =   7.711680733889508E-006  rzold =   6.360415476206004E-006  alpha = 
  0.824776815286806     
 delta_qm =   0.397343E-04 delta_en =   0.272819E-02 tol =   0.100000E-04
 Iteration #         43
  pAp =   9.386187033201340E-006  rzold =   4.185026439900646E-006  alpha = 
  0.445870770004597     
 delta_qm =   0.288471E-04 delta_en =   0.143796E-02 tol =   0.100000E-04
 Iteration #         44
  pAp =   3.258473355290764E-006  rzold =   2.101264453528232E-006  alpha = 
  0.644861634395881     
 delta_qm =   0.280580E-04 delta_en =   0.136037E-02 tol =   0.100000E-04
 Iteration #         45
  pAp =   2.897292583816423E-006  rzold =   1.703144024707582E-006  alpha = 
  0.587839845454661     
 delta_qm =   0.291383E-04 delta_en =   0.146714E-02 tol =   0.100000E-04
 Iteration #         46
  pAp =   3.063360105872350E-006  rzold =   2.281657630729178E-006  alpha = 
  0.744821879202293     
 delta_qm =   0.333242E-04 delta_en =   0.191895E-02 tol =   0.100000E-04
 Iteration #         47
  pAp =   2.324140172238119E-006  rzold =   2.654275118365336E-006  alpha = 
   1.14204605646023     
 delta_qm =   0.571323E-04 delta_en =   0.564037E-02 tol =   0.100000E-04
 Iteration #         48
  pAp =  -4.967201809366900E-006  rzold =   8.754045020102249E-006  alpha = 
  -1.76236951025310     
 delta_qm =   0.146710E-03 delta_en =   0.371934E-01 tol =   0.100000E-04
 Iteration #         49
  pAp =   1.391123781922506E-004  rzold =   3.699536031765757E-005  alpha = 
  0.265938666266856     
 delta_qm =   0.308836E-04 delta_en =   0.164816E-02 tol =   0.100000E-04
 Iteration #         50
  pAp =   2.126074177019853E-006  rzold =   1.911524346419292E-006  alpha = 
  0.899086385169638     
 delta_qm =   0.291168E-04 delta_en =   0.146498E-02 tol =   0.100000E-04
 Iteration #         51
  pAp =   9.676161427367600E-007  rzold =   1.764549129777005E-006  alpha = 
   1.82360447686025     
 delta_qm =   0.627491E-04 delta_en =   0.680390E-02 tol =   0.100000E-04
 Iteration #         52
  pAp =  -1.211884447884506E-005  rzold =   9.203491135114752E-006  alpha = 
 -0.759436359727248     
 delta_qm =   0.599052E-04 delta_en =   0.620116E-02 tol =   0.100000E-04
 Iteration #         53
  pAp =   2.751634090553765E-005  rzold =   8.342635099302995E-006  alpha = 
  0.303188390053128     
 delta_qm =   0.289918E-04 delta_en =   0.145243E-02 tol =   0.100000E-04
 Iteration #         54
  pAp =   2.774725147074803E-006  rzold =   1.789406238920024E-006  alpha = 
  0.644894951417610     
 delta_qm =   0.187317E-04 delta_en =   0.606312E-03 tol =   0.100000E-04
 Iteration #         55
  pAp =   7.290119555241666E-007  rzold =   6.415210296728347E-007  alpha = 
  0.879986980750645     
 delta_qm =   0.120254E-04 delta_en =   0.249888E-03 tol =   0.100000E-04
 Iteration #         56
  pAp =   3.537710410328688E-007  rzold =   2.531084540554285E-007  alpha = 
  0.715458374762541     
 delta_qm =   0.939185E-05 delta_en =   0.152421E-03 tol =   0.100000E-04
 Iteration #         57
  pAp =   1.475075101424562E-007  rzold =   1.350539291648948E-007  alpha = 
  0.915573241216435     
 delta_qm =   0.569622E-05 delta_en =   0.560682E-04 tol =   0.100000E-04
 Iteration #         58
  pAp =   1.613262928979622E-007  rzold =   8.761636888250170E-008  alpha = 
  0.543100367017784     
 delta_qm =   0.567026E-05 delta_en =   0.555583E-04 tol =   0.100000E-04
 Iteration #         59
  pAp =   9.766187239420439E-008  rzold =   1.000453219348148E-007  alpha = 
   1.02440511821225     
 delta_qm =   0.127018E-04 delta_en =   0.278787E-03 tol =   0.100000E-04
 Iteration #         60
  pAp =  -1.337772665097383E-006  rzold =   4.701103390105348E-007  alpha = 
 -0.351412726000283     
 delta_qm =   0.677189E-05 delta_en =   0.792434E-04 tol =   0.100000E-04
 Iteration #         61
  pAp =   4.259476533215081E-007  rzold =   1.289704559289566E-007  alpha = 
  0.302784755176498     
 delta_qm =   0.360484E-05 delta_en =   0.224551E-04 tol =   0.100000E-04
 Iteration #         62
  pAp =   6.850188653050477E-008  rzold =   2.874983752909028E-008  alpha = 
  0.419694098735333     
 delta_qm =   0.243184E-05 delta_en =   0.102191E-04 tol =   0.100000E-04
 Iteration #         63
  pAp =   5.750997355513892E-008  rzold =   1.830488974524798E-008  alpha = 
  0.318290700093920     
 delta_qm =   0.187334E-05 delta_en =   0.606422E-05 tol =   0.100000E-04
 Charges are converged, EXIT

%%%% ELECTRONS %%%%%%%%%%%%%%%%%%%%%%%%%%%%%%%%%%%%%%%%%%%%%%%%%%%%%%%%%%%%%%%%%
 number of electrons        =          7
 total electronic charge    =      8.0000000
 number of spin components  =  1

%%%% BOUNDARY %%%%%%%%%%%%%%%%%%%%%%%%%%%%%%%%%%%%%%%%%%%%%%%%%%%%%%%%%%%%%%%%%%
 boundary mode              = electronic           
 boundary is built as a function of a smooth density
 function type              =  2 
 using the modified SCCS function with parameters 
 rhomax                     =      0.0050000 
 rhomin                     =      0.0001000 
 volume of the QM region    =    265.1330579 
 surface of the QM region   =    198.6905219 

%%%% DIELECTRIC %%%%%%%%%%%%%%%%%%%%%%%%%%%%%%%%%%%%%%%%%%%%%%%%%%%%%%%%%%%%%%%%%
 dielectric build in the presence of dielectric regions
 environment bulk permitt.  =      1.0000000 
 number of dielec. regions  =    1 
 dielectric flags
 need gradient              =  F 
 need factor depend. sqrt   =  T 
 total dielectric charge    =     -0.1470312

%%%% COMPUTE ELECTROSTATIC POTENTIAL %%%%%%%%%%%%%%%%%%%%%%%%%%%%%%%%%%%%%%%%%%%
 Warning: bad guess with residual norm =   0.111252E+02, reset to no guess
 Iteration #          1
  pAp =    28.5792123324716       rzold =    28.5565099671425       alpha = 
  0.999205633624017     
 delta_qm =   0.253554E-02 delta_en =   0.111092E+02 tol =   0.100000E-04
 Iteration #          2
  pAp =   0.439385203080778       rzold =   8.736695207671526E-002  alpha = 
  0.198839085759229     
 delta_qm =   0.971041E-03 delta_en =   0.162937E+01 tol =   0.100000E-04
 Iteration #          3
  pAp =   2.061334322433906E-002  rzold =   6.070652109607117E-003  alpha = 
  0.294501092983269     
 delta_qm =   0.914751E-03 delta_en =   0.144594E+01 tol =   0.100000E-04
 Iteration #          4
  pAp =  -1.222427982363128E-003  rzold =   3.788954509815869E-003  alpha = 
  -3.09953188611674     
 delta_qm =   0.410616E-02 delta_en =   0.291351E+02 tol =   0.100000E-04
 Iteration #          5
  pAp =    2.62424152298841       rzold =   0.152422846786662       alpha = 
  5.808262900020251E-002
 delta_qm =   0.319307E-03 delta_en =   0.176182E+00 tol =   0.100000E-04
 Iteration #          6
  pAp =   3.474118580870065E-003  rzold =   9.287660359950131E-004  alpha = 
  0.267338611039123     
 delta_qm =   0.198220E-03 delta_en =   0.678954E-01 tol =   0.100000E-04
 Iteration #          7
  pAp =   1.636886606610528E-004  rzold =   1.342100356624364E-004  alpha = 
  0.819910402592534     
 delta_qm =   0.264474E-03 delta_en =   0.120868E+00 tol =   0.100000E-04
 Iteration #          8
  pAp =   5.310030306723081E-006  rzold =   2.651676502452007E-004  alpha = 
   49.9371255771308     
 delta_qm =   0.191413E-01 delta_en =   0.633118E+03 tol =   0.100000E-04
 Iteration #          9
  pAp =   -241.838503803452       rzold =    1.81060399806676       alpha = 
 -7.486830961947559E-003
 delta_qm =   0.293896E-03 delta_en =   0.149256E+00 tol =   0.100000E-04
 Iteration #         10
  pAp =   1.025295971508167E-003  rzold =   3.585512721205306E-004  alpha = 
  0.349705140841543     
 delta_qm =   0.224352E-03 delta_en =   0.869771E-01 tol =   0.100000E-04
 Iteration #         11
  pAp =   2.654394155618841E-004  rzold =   1.562491537652362E-004  alpha = 
  0.588643376246466     
 delta_qm =   0.217351E-03 delta_en =   0.816335E-01 tol =   0.100000E-04
 Iteration #         12
  pAp =   5.536987195569506E-005  rzold =   1.364284372156129E-004  alpha = 
   2.46394713220175     
 delta_qm =   0.414592E-03 delta_en =   0.297019E+00 tol =   0.100000E-04
 Iteration #         13
  pAp =  -2.075523633458096E-004  rzold =   8.855906447668894E-004  alpha = 
  -4.26682997240257     
 delta_qm =   0.382066E-02 delta_en =   0.252243E+02 tol =   0.100000E-04
 Iteration #         14
  pAp =   0.314794811827491       rzold =   3.107966205446450E-002  alpha = 
  9.872990559798761E-002
 delta_qm =   0.442910E-03 delta_en =   0.338980E+00 tol =   0.100000E-04
 Iteration #         15
  pAp =   1.355291752520999E-003  rzold =   6.573845103367937E-004  alpha = 
  0.485050181345812     
 delta_qm =   0.184585E-03 delta_en =   0.588760E-01 tol =   0.100000E-04
 Iteration #         16
  pAp =   6.183930230982150E-004  rzold =   2.020104212165128E-004  alpha = 
  0.326669955305154     
 delta_qm =   0.148956E-03 delta_en =   0.383407E-01 tol =   0.100000E-04
 Iteration #         17
  pAp =   1.109363809084602E-004  rzold =   5.146837750576532E-005  alpha = 
  0.463944984362116     
 delta_qm =   0.128635E-03 delta_en =   0.285930E-01 tol =   0.100000E-04
 Iteration #         18
  pAp =   3.671356059998404E-005  rzold =   3.071868608892512E-005  alpha = 
  0.836712255278734     
 delta_qm =   0.964130E-04 delta_en =   0.160626E-01 tol =   0.100000E-04
 Iteration #         19
  pAp =   7.162582503826121E-005  rzold =   4.289037076518986E-005  alpha = 
  0.598811542377049     
 delta_qm =   0.904145E-04 delta_en =   0.141260E-01 tol =   0.100000E-04
 Iteration #         20
  pAp =   3.296360836456371E-005  rzold =   2.454875901103742E-005  alpha = 
  0.744723051540305     
 delta_qm =   0.110699E-03 delta_en =   0.211756E-01 tol =   0.100000E-04
 Iteration #         21
  pAp =   1.272342111127513E-005  rzold =   2.639510490682813E-005  alpha = 
   2.07452890822245     
 delta_qm =   0.279568E-03 delta_en =   0.135057E+00 tol =   0.100000E-04
 Iteration #         22
  pAp =  -9.720554529116720E-004  rzold =   3.059949863636070E-004  alpha = 
 -0.314791697785385     
 delta_qm =   0.181150E-03 delta_en =   0.567050E-01 tol =   0.100000E-04
 Iteration #         23
  pAp =   1.072084398976349E-004  rzold =   5.486618650603121E-005  alpha = 
  0.511771149346252     
 delta_qm =   0.737023E-04 delta_en =   0.938653E-02 tol =   0.100000E-04
 Iteration #         24
  pAp =   1.755583834522282E-005  rzold =   1.457525851676867E-005  alpha = 
  0.830222871170080     
 delta_qm =   0.670282E-04 delta_en =   0.776353E-02 tol =   0.100000E-04
 Iteration #         25
  pAp =   1.114240800960550E-005  rzold =   1.025697769188116E-005  alpha = 
  0.920535101841448     
 delta_qm =   0.638478E-04 delta_en =   0.704426E-02 tol =   0.100000E-04
 Iteration #         26
  pAp =   1.353187742471642E-005  rzold =   9.965595711604157E-006  alpha = 
  0.736453294603576     
 delta_qm =   0.604602E-04 delta_en =   0.631660E-02 tol =   0.100000E-04
 Iteration #         27
  pAp =   1.447563300398981E-005  rzold =   9.573043926813729E-006  alpha = 
  0.661321264788571     
 delta_qm =   0.650750E-04 delta_en =   0.731765E-02 tol =   0.100000E-04
 Iteration #         28
  pAp =   5.667591776784684E-006  rzold =   9.694302354210129E-006  alpha = 
   1.71047999503413     
 delta_qm =   0.113803E-03 delta_en =   0.223796E-01 tol =   0.100000E-04
 Iteration #         29
  pAp =  -6.974164072255938E-006  rzold =   5.168161674815978E-005  alpha = 
  -7.41043890173956     
 delta_qm =   0.201491E-02 delta_en =   0.701544E+01 tol =   0.100000E-04
 Iteration #         30
  pAp =   0.386874443214327       rzold =   1.168578415779787E-002  alpha = 
  3.020562449332943E-002
 delta_qm =   0.107697E-03 delta_en =   0.200425E-01 tol =   0.100000E-04
 Iteration #         31
  pAp =   7.170814735194329E-005  rzold =   3.349221153403298E-005  alpha = 
  0.467062848098046     
 delta_qm =   0.711332E-04 delta_en =   0.874356E-02 tol =   0.100000E-04
 Iteration #         32
  pAp =   2.969492972105722E-005  rzold =   1.583572273521752E-005  alpha = 
  0.533280357420349     
 delta_qm =   0.665726E-04 delta_en =   0.765834E-02 tol =   0.100000E-04
 Iteration #         33
  pAp =   6.342182703867239E-006  rzold =   7.025346960222391E-006  alpha = 
   1.10771753010814     
 delta_qm =   0.630798E-04 delta_en =   0.687581E-02 tol =   0.100000E-04
 Iteration #         34
  pAp =   1.022805402143260E-005  rzold =   1.145008697432059E-005  alpha = 
   1.11947853915586     
 delta_qm =   0.924637E-04 delta_en =   0.147736E-01 tol =   0.100000E-04
 Iteration #         35
  pAp =   6.676156661983680E-005  rzold =   3.472098298271358E-005  alpha = 
  0.520074419170340     
 delta_qm =   0.159146E-03 delta_en =   0.437658E-01 tol =   0.100000E-04
 Iteration #         36
  pAp =   1.244917808080242E-005  rzold =   5.462144702011829E-005  alpha = 
   4.38755447673680     
 delta_qm =   0.104788E-02 delta_en =   0.189743E+01 tol =   0.100000E-04
 Iteration #         37
  pAp =  -1.432784489353056E-002  rzold =   2.098578159180528E-003  alpha = 
 -0.146468514614371     
 delta_qm =   0.151165E-03 delta_en =   0.394863E-01 tol =   0.100000E-04
 Iteration #         38
  pAp =   1.833937236995449E-004  rzold =   7.055772824107525E-005  alpha = 
  0.384733603842792     
 delta_qm =   0.106463E-03 delta_en =   0.195859E-01 tol =   0.100000E-04
 Iteration #         39
  pAp =   1.510980353631341E-005  rzold =   1.510172697757925E-005  alpha = 
  0.999465475595712     
 delta_qm =   0.696964E-04 delta_en =   0.839390E-02 tol =   0.100000E-04
 Iteration #         40
  pAp =   1.041320295167893E-005  rzold =   1.037007662792383E-005  alpha = 
  0.995858495800454     
 delta_qm =   0.712672E-04 delta_en =   0.877654E-02 tol =   0.100000E-04
 Iteration #         41
  pAp =   9.626231358612783E-006  rzold =   7.617820385896853E-006  alpha = 
  0.791360616850439     
 delta_qm =   0.554892E-04 delta_en =   0.532060E-02 tol =   0.100000E-04
 Iteration #         42
  pAp =   4.816582953949433E-006  rzold =   4.014052910957830E-006  alpha = 
  0.833381870370663     
 delta_qm =   0.314034E-04 delta_en =   0.170411E-02 tol =   0.100000E-04
 Iteration #         43
  pAp =   3.825458114315902E-006  rzold =   2.270928027018931E-006  alpha = 
  0.593635574918597     
 delta_qm =   0.269002E-04 delta_en =   0.125042E-02 tol =   0.100000E-04
 Iteration #         44
  pAp =   1.715240385006483E-006  rzold =   1.541920524229695E-006  alpha = 
  0.898953020059556     
 delta_qm =   0.309715E-04 delta_en =   0.165756E-02 tol =   0.100000E-04
 Iteration #         45
  pAp =   1.407281890680898E-006  rzold =   1.965952378708464E-006  alpha = 
   1.39698548793040     
 delta_qm =   0.548345E-04 delta_en =   0.519578E-02 tol =   0.100000E-04
 Iteration #         46
  pAp =  -1.154097090477414E-006  rzold =   8.220980605126296E-006  alpha = 
  -7.12330069364054     
 delta_qm =   0.696713E-03 delta_en =   0.838786E+00 tol =   0.100000E-04
 Iteration #         47
  pAp =   2.017871961264915E-002  rzold =   1.024701098894286E-003  alpha = 
  5.078127445965136E-002
 delta_qm =   0.443150E-04 delta_en =   0.339348E-02 tol =   0.100000E-04
 Iteration #         48
  pAp =   1.987877204546326E-005  rzold =   5.046913471218427E-006  alpha = 
  0.253884568909790     
 delta_qm =   0.289819E-04 delta_en =   0.145144E-02 tol =   0.100000E-04
 Iteration #         49
  pAp =   2.176850088783589E-006  rzold =   1.516592560039666E-006  alpha = 
  0.696691319192829     
 delta_qm =   0.172437E-04 delta_en =   0.513810E-03 tol =   0.100000E-04
 Iteration #         50
  pAp =   6.615820020877324E-007  rzold =   6.070569675222593E-007  alpha = 
  0.917583860514025     
 delta_qm =   0.182399E-04 delta_en =   0.574896E-03 tol =   0.100000E-04
 Iteration #         51
  pAp =   3.436485642641551E-007  rzold =   5.625785521067600E-007  alpha = 
   1.63707522919932     
 delta_qm =   0.286453E-04 delta_en =   0.141792E-02 tol =   0.100000E-04
 Iteration #         52
  pAp =  -1.435967641077058E-006  rzold =   1.810963303752838E-006  alpha = 
  -1.26114492551832     
 delta_qm =   0.426372E-04 delta_en =   0.314138E-02 tol =   0.100000E-04
 Iteration #         53
  pAp =   7.636527395844212E-006  rzold =   3.159308954958799E-006  alpha = 
  0.413710157928339     
 delta_qm =   0.165658E-04 delta_en =   0.474209E-03 tol =   0.100000E-04
 Iteration #         54
  pAp =   1.332020530361114E-006  rzold =   6.950860272017693E-007  alpha = 
  0.521828313722259     
 delta_qm =   0.122841E-04 delta_en =   0.260754E-03 tol =   0.100000E-04
 Iteration #         55
  pAp =   4.970371950768265E-007  rzold =   3.228728344727620E-007  alpha = 
  0.649594914969806     
 delta_qm =   0.991435E-05 delta_en =   0.169853E-03 tol =   0.100000E-04
 Iteration #         56
  pAp =   2.018744209405646E-007  rzold =   1.577153263904452E-007  alpha = 
  0.781254631743956     
 delta_qm =   0.758751E-05 delta_en =   0.994815E-04 tol =   0.100000E-04
 Iteration #         57
  pAp =   9.422878902445686E-008  rzold =   9.987090162439217E-008  alpha = 
   1.05987673892817     
 delta_qm =   0.571422E-05 delta_en =   0.564232E-04 tol =   0.100000E-04
 Iteration #         58
  pAp =   5.266456455543881E-008  rzold =   8.490107710705430E-008  alpha = 
   1.61211011281942     
 delta_qm =   0.147566E-04 delta_en =   0.376285E-03 tol =   0.100000E-04
 Iteration #         59
  pAp =  -4.961292042039783E-006  rzold =   1.164404045578346E-006  alpha = 
 -0.234697743191028     
 delta_qm =   0.124183E-04 delta_en =   0.266480E-03 tol =   0.100000E-04
 Iteration #         60
  pAp =   1.751727824405330E-006  rzold =   4.229322891666839E-007  alpha = 
  0.241437216029984     
 delta_qm =   0.455168E-05 delta_en =   0.358003E-04 tol =   0.100000E-04
 Iteration #         61
  pAp =   9.220442121640417E-008  rzold =   3.610540058997349E-008  alpha = 
  0.391579927661321     
 delta_qm =   0.312921E-05 delta_en =   0.169205E-04 tol =   0.100000E-04
 Iteration #         62
  pAp =   5.142939581371664E-008  rzold =   2.315293709826071E-008  alpha = 
  0.450188782736694     
 delta_qm =   0.190514E-05 delta_en =   0.627191E-05 tol =   0.100000E-04
 Charges are converged, EXIT

%%%% ELECTRONS %%%%%%%%%%%%%%%%%%%%%%%%%%%%%%%%%%%%%%%%%%%%%%%%%%%%%%%%%%%%%%%%%
 number of electrons        =          7
 total electronic charge    =      8.0000000
 number of spin components  =  1

%%%% BOUNDARY %%%%%%%%%%%%%%%%%%%%%%%%%%%%%%%%%%%%%%%%%%%%%%%%%%%%%%%%%%%%%%%%%%
 boundary mode              = electronic           
 boundary is built as a function of a smooth density
 function type              =  2 
 using the modified SCCS function with parameters 
 rhomax                     =      0.0050000 
 rhomin                     =      0.0001000 
 volume of the QM region    =    242.9570691 
 surface of the QM region   =    187.8446650 

%%%% DIELECTRIC %%%%%%%%%%%%%%%%%%%%%%%%%%%%%%%%%%%%%%%%%%%%%%%%%%%%%%%%%%%%%%%%%
 dielectric build in the presence of dielectric regions
 environment bulk permitt.  =      1.0000000 
 number of dielec. regions  =    1 
 dielectric flags
 need gradient              =  F 
 need factor depend. sqrt   =  T 
 total dielectric charge    =     -0.1574553

%%%% COMPUTE ELECTROSTATIC POTENTIAL %%%%%%%%%%%%%%%%%%%%%%%%%%%%%%%%%%%%%%%%%%%
 Warning: bad guess with residual norm =   0.133475E+02, reset to no guess
 Iteration #          1
  pAp =    28.4661728845711       rzold =    28.4383228033082       alpha = 
  0.999021642938241     
 delta_qm =   0.277679E-02 delta_en =   0.133238E+02 tol =   0.100000E-04
 Iteration #          2
  pAp =   0.513196510026950       rzold =   0.104782003024175       alpha = 
  0.204175205748519     
 delta_qm =   0.839311E-03 delta_en =   0.121728E+01 tol =   0.100000E-04
 Iteration #          3
  pAp =   1.490569089494847E-002  rzold =   5.007496322745351E-003  alpha = 
  0.335945268021249     
 delta_qm =   0.940832E-03 delta_en =   0.152957E+01 tol =   0.100000E-04
 Iteration #          4
  pAp =  -2.161361984807551E-003  rzold =   3.303366117971667E-003  alpha = 
  -1.52837245273646     
 delta_qm =   0.140870E-02 delta_en =   0.342908E+01 tol =   0.100000E-04
 Iteration #          5
  pAp =   0.132415332654269       rzold =   1.800468191254788E-002  alpha = 
  0.135971277280686     
 delta_qm =   0.281930E-03 delta_en =   0.137349E+00 tol =   0.100000E-04
 Iteration #          6
  pAp =   2.092313543439878E-003  rzold =   5.662586771505836E-004  alpha = 
  0.270637581506844     
 delta_qm =   0.232458E-03 delta_en =   0.933756E-01 tol =   0.100000E-04
 Iteration #          7
  pAp =   2.738276903499665E-004  rzold =   2.031550610740474E-004  alpha = 
  0.741908390690526     
 delta_qm =   0.335337E-03 delta_en =   0.194315E+00 tol =   0.100000E-04
 Iteration #          8
  pAp =   2.442910933256289E-005  rzold =   4.758418132886343E-004  alpha = 
   19.4784757319973     
 delta_qm =   0.121244E-01 delta_en =   0.254018E+03 tol =   0.100000E-04
 Iteration #          9
  pAp =   -62.6750551193764       rzold =   0.779694073213700       alpha = 
 -1.244026146811720E-002
 delta_qm =   0.303771E-03 delta_en =   0.159454E+00 tol =   0.100000E-04
 Iteration #         10
  pAp =   1.180711841547799E-003  rzold =   4.265223264834110E-004  alpha = 
  0.361241677668178     
 delta_qm =   0.249232E-03 delta_en =   0.107338E+00 tol =   0.100000E-04
 Iteration #         11
  pAp =   2.643902138670450E-004  rzold =   1.826125960474064E-004  alpha = 
  0.690693476798795     
 delta_qm =   0.251856E-03 delta_en =   0.109609E+00 tol =   0.100000E-04
 Iteration #         12
  pAp =   8.083373095188573E-005  rzold =   1.856612567219993E-004  alpha = 
   2.29682899125997     
 delta_qm =   0.490072E-03 delta_en =   0.415014E+00 tol =   0.100000E-04
 Iteration #         13
  pAp =  -6.472455280520925E-004  rzold =   1.334101824854835E-003  alpha = 
  -2.06119898405457     
 delta_qm =   0.226568E-02 delta_en =   0.887035E+01 tol =   0.100000E-04
 Iteration #         14
  pAp =   8.318499599976088E-002  rzold =   1.248197433178691E-002  alpha = 
  0.150050789589781     
 delta_qm =   0.498686E-03 delta_en =   0.429732E+00 tol =   0.100000E-04
 Iteration #         15
  pAp =   1.333642588832941E-003  rzold =   6.728995153764160E-004  alpha = 
  0.504557608620811     
 delta_qm =   0.180801E-03 delta_en =   0.564867E-01 tol =   0.100000E-04
 Iteration #         16
  pAp =   6.278738046785855E-004  rzold =   2.467511233286883E-004  alpha = 
  0.392994772978310     
 delta_qm =   0.160628E-03 delta_en =   0.445848E-01 tol =   0.100000E-04
 Iteration #         17
  pAp =   1.122729865180605E-004  rzold =   5.863340842064397E-005  alpha = 
  0.522239678831489     
 delta_qm =   0.150914E-03 delta_en =   0.393551E-01 tol =   0.100000E-04
 Iteration #         18
  pAp =   5.827212854675911E-005  rzold =   5.229033595034045E-005  alpha = 
  0.897347278268397     
 delta_qm =   0.166330E-03 delta_en =   0.478064E-01 tol =   0.100000E-04
 Iteration #         19
  pAp =   3.290222318962611E-005  rzold =   1.330955714158753E-004  alpha = 
   4.04518474781484     
 delta_qm =   0.138538E-02 delta_en =   0.331651E+01 tol =   0.100000E-04
 Iteration #         20
  pAp =  -3.548782117788181E-002  rzold =   4.792232292542358E-003  alpha = 
 -0.135038786081609     
 delta_qm =   0.249141E-03 delta_en =   0.107259E+00 tol =   0.100000E-04
 Iteration #         21
  pAp =   4.424104815936967E-004  rzold =   1.831203402159951E-004  alpha = 
  0.413915012945308     
 delta_qm =   0.112417E-03 delta_en =   0.218378E-01 tol =   0.100000E-04
 Iteration #         22
  pAp =   1.057218370699248E-004  rzold =   5.174784495912628E-005  alpha = 
  0.489471677690391     
 delta_qm =   0.972686E-04 delta_en =   0.163489E-01 tol =   0.100000E-04
 Iteration #         23
  pAp =   1.716331174155068E-005  rzold =   1.491050525870682E-005  alpha = 
  0.868742902490663     
 delta_qm =   0.634370E-04 delta_en =   0.695391E-02 tol =   0.100000E-04
 Iteration #         24
  pAp =   1.020431527983205E-005  rzold =   1.022961642246135E-005  alpha = 
   1.00247945520454     
 delta_qm =   0.638926E-04 delta_en =   0.705415E-02 tol =   0.100000E-04
 Iteration #         25
  pAp =   9.608896147748483E-006  rzold =   1.056270889888340E-005  alpha = 
   1.09926350919699     
 delta_qm =   0.761772E-04 delta_en =   0.100275E-01 tol =   0.100000E-04
 Iteration #         26
  pAp =   1.332855840120374E-005  rzold =   1.500604274559207E-005  alpha = 
   1.12585639751084     
 delta_qm =   0.120554E-03 delta_en =   0.251137E-01 tol =   0.100000E-04
 Iteration #         27
  pAp =   1.023132661655968E-005  rzold =   4.176577831028236E-005  alpha = 
   4.08214690778059     
 delta_qm =   0.821288E-03 delta_en =   0.116556E+01 tol =   0.100000E-04
 Iteration #         28
  pAp =  -1.489131217223851E-002  rzold =   1.795051542401511E-003  alpha = 
 -0.120543543889166     
 delta_qm =   0.106284E-03 delta_en =   0.195199E-01 tol =   0.100000E-04
 Iteration #         29
  pAp =   1.720921529488186E-004  rzold =   4.775500902436555E-005  alpha = 
  0.277496726062624     
 delta_qm =   0.688042E-04 delta_en =   0.818039E-02 tol =   0.100000E-04
 Iteration #         30
  pAp =   2.349792553010530E-005  rzold =   1.256027741003675E-005  alpha = 
  0.534527075334572     
 delta_qm =   0.576196E-04 delta_en =   0.573699E-02 tol =   0.100000E-04
 Iteration #         31
  pAp =   7.309744238848111E-006  rzold =   8.430669033540589E-006  alpha = 
   1.15334665045259     
 delta_qm =   0.826332E-04 delta_en =   0.117992E-01 tol =   0.100000E-04
 Iteration #         32
  pAp =  -2.455820523595780E-006  rzold =   2.501857978513974E-005  alpha = 
  -10.1874626198285     
 delta_qm =   0.159891E-02 delta_en =   0.441763E+01 tol =   0.100000E-04
 Iteration #         33
  pAp =   0.133298235881418       rzold =   5.650778078871746E-003  alpha = 
  4.239199447394532E-002
 delta_qm =   0.694527E-04 delta_en =   0.833532E-02 tol =   0.100000E-04
 Iteration #         34
  pAp =   3.025637659020914E-005  rzold =   1.566611251324487E-005  alpha = 
  0.517778871060006     
 delta_qm =   0.453018E-04 delta_en =   0.354629E-02 tol =   0.100000E-04
 Iteration #         35
  pAp =   1.294214900936790E-005  rzold =   5.144216074785688E-006  alpha = 
  0.397477735039378     
 delta_qm =   0.438534E-04 delta_en =   0.332315E-02 tol =   0.100000E-04
 Iteration #         36
  pAp =   1.109175921009116E-005  rzold =   4.548596909700764E-006  alpha = 
  0.410087960218475     
 delta_qm =   0.314206E-04 delta_en =   0.170598E-02 tol =   0.100000E-04
 Iteration #         37
  pAp =   2.689603574002651E-006  rzold =   2.513223027087987E-006  alpha = 
  0.934421359110489     
 delta_qm =   0.339313E-04 delta_en =   0.198951E-02 tol =   0.100000E-04
 Iteration #         38
  pAp =   3.843137604315103E-006  rzold =   3.002454770755038E-006  alpha = 
  0.781250915237555     
 delta_qm =   0.411541E-04 delta_en =   0.292665E-02 tol =   0.100000E-04
 Iteration #         39
  pAp =   1.915427053003257E-006  rzold =   2.541802670690276E-006  alpha = 
   1.32701616942546     
 delta_qm =   0.397039E-04 delta_en =   0.272401E-02 tol =   0.100000E-04
 Iteration #         40
  pAp =   2.255050861705871E-006  rzold =   3.022168032092462E-006  alpha = 
   1.34017732522729     
 delta_qm =   0.475847E-04 delta_en =   0.391272E-02 tol =   0.100000E-04
 Iteration #         41
  pAp =   4.225871671581077E-006  rzold =   4.173884681715532E-006  alpha = 
  0.987697925089596     
 delta_qm =   0.478792E-04 delta_en =   0.396130E-02 tol =   0.100000E-04
 Iteration #         42
  pAp =   4.149782464969494E-006  rzold =   3.367954093956158E-006  alpha = 
  0.811597745758203     
 delta_qm =   0.346931E-04 delta_en =   0.207984E-02 tol =   0.100000E-04
 Iteration #         43
  pAp =   7.891293227639785E-006  rzold =   3.046003996815375E-006  alpha = 
  0.385995540774805     
 delta_qm =   0.278437E-04 delta_en =   0.133967E-02 tol =   0.100000E-04
 Iteration #         44
  pAp =   3.170454712981179E-006  rzold =   1.939201330636812E-006  alpha = 
  0.611647699207594     
 delta_qm =   0.256749E-04 delta_en =   0.113910E-02 tol =   0.100000E-04
 Iteration #         45
  pAp =   2.266591982157585E-006  rzold =   1.789195747762633E-006  alpha = 
  0.789377074412610     
 delta_qm =   0.338357E-04 delta_en =   0.197831E-02 tol =   0.100000E-04
 Iteration #         46
  pAp =   1.093799498032854E-006  rzold =   2.070210537688466E-006  alpha = 
   1.89267826636567     
 delta_qm =   0.678834E-04 delta_en =   0.796290E-02 tol =   0.100000E-04
 Iteration #         47
  pAp =  -6.986445873604878E-006  rzold =   1.072746326225857E-005  alpha = 
  -1.53546788400486     
 delta_qm =   0.147797E-03 delta_en =   0.377465E-01 tol =   0.100000E-04
 Iteration #         48
  pAp =   4.525283453064118E-004  rzold =   6.547986495351495E-005  alpha = 
  0.144697819777848     
 delta_qm =   0.404990E-04 delta_en =   0.283421E-02 tol =   0.100000E-04
 Iteration #         49
  pAp =   2.987462762669678E-006  rzold =   2.245221672092495E-006  alpha = 
  0.751548002588693     
 delta_qm =   0.207937E-04 delta_en =   0.747152E-03 tol =   0.100000E-04
 Iteration #         50
  pAp =   8.575176096004614E-007  rzold =   9.842608586798428E-007  alpha = 
   1.14780250301616     
 delta_qm =   0.299947E-04 delta_en =   0.155465E-02 tol =   0.100000E-04
 Iteration #         51
  pAp =  -2.686266956503606E-007  rzold =   1.735012100104571E-006  alpha = 
  -6.45882232927002     
 delta_qm =   0.219728E-03 delta_en =   0.834285E-01 tol =   0.100000E-04
 Iteration #         52
  pAp =   1.057736442778726E-003  rzold =   1.018167774315508E-004  alpha = 
  9.625911835284133E-002
 delta_qm =   0.221659E-04 delta_en =   0.849013E-03 tol =   0.100000E-04
 Iteration #         53
  pAp =   1.296862337731117E-006  rzold =   8.575540390208636E-007  alpha = 
  0.661252944180004     
 delta_qm =   0.169259E-04 delta_en =   0.495050E-03 tol =   0.100000E-04
 Iteration #         54
  pAp =   1.015843385258940E-006  rzold =   6.328568556112405E-007  alpha = 
  0.622986638289646     
 delta_qm =   0.128510E-04 delta_en =   0.285374E-03 tol =   0.100000E-04
 Iteration #         55
  pAp =   4.526925971827991E-007  rzold =   3.655678817854391E-007  alpha = 
  0.807541108603155     
 delta_qm =   0.103757E-04 delta_en =   0.186028E-03 tol =   0.100000E-04
 Iteration #         56
  pAp =   2.271265436836468E-007  rzold =   1.839551843377610E-007  alpha = 
  0.809923760359700     
 delta_qm =   0.890287E-05 delta_en =   0.136963E-03 tol =   0.100000E-04
 Iteration #         57
  pAp =   1.244803090973317E-007  rzold =   1.222983691572482E-007  alpha = 
  0.982471605702895     
 delta_qm =   0.618408E-05 delta_en =   0.660836E-04 tol =   0.100000E-04
 Iteration #         58
  pAp =   4.985434905387344E-007  rzold =   1.501370730869041E-007  alpha = 
  0.301151405917794     
 delta_qm =   0.580644E-05 delta_en =   0.582592E-04 tol =   0.100000E-04
 Iteration #         59
  pAp =   6.562212106499282E-008  rzold =   1.012569737214711E-007  alpha = 
   1.54303110107010     
 delta_qm =   0.140325E-04 delta_en =   0.340260E-03 tol =   0.100000E-04
 Iteration #         60
  pAp =  -1.603224329486055E-006  rzold =   6.335640935095433E-007  alpha = 
 -0.395181186972534     
 delta_qm =   0.103214E-04 delta_en =   0.184085E-03 tol =   0.100000E-04
 Iteration #         61
  pAp =   2.044273171086412E-006  rzold =   3.801236038597809E-007  alpha = 
  0.185945601222056     
 delta_qm =   0.530414E-05 delta_en =   0.486153E-04 tol =   0.100000E-04
 Iteration #         62
  pAp =   7.262408378891463E-008  rzold =   4.630217414803747E-008  alpha = 
  0.637559494486938     
 delta_qm =   0.315096E-05 delta_en =   0.171566E-04 tol =   0.100000E-04
 Iteration #         63
  pAp =   1.954747529241530E-008  rzold =   1.640799546927921E-008  alpha = 
  0.839392055691496     
 delta_qm =   0.213348E-05 delta_en =   0.786543E-05 tol =   0.100000E-04
 Charges are converged, EXIT

%%%% ELECTRONS %%%%%%%%%%%%%%%%%%%%%%%%%%%%%%%%%%%%%%%%%%%%%%%%%%%%%%%%%%%%%%%%%
 number of electrons        =          7
 total electronic charge    =      8.0000000
 number of spin components  =  1

%%%% BOUNDARY %%%%%%%%%%%%%%%%%%%%%%%%%%%%%%%%%%%%%%%%%%%%%%%%%%%%%%%%%%%%%%%%%%
 boundary mode              = electronic           
 boundary is built as a function of a smooth density
 function type              =  2 
 using the modified SCCS function with parameters 
 rhomax                     =      0.0050000 
 rhomin                     =      0.0001000 
 volume of the QM region    =    242.9570691 
 surface of the QM region   =    187.8446650 

%%%% DIELECTRIC %%%%%%%%%%%%%%%%%%%%%%%%%%%%%%%%%%%%%%%%%%%%%%%%%%%%%%%%%%%%%%%%%
 dielectric build in the presence of dielectric regions
 environment bulk permitt.  =      1.0000000 
 number of dielec. regions  =    1 
 dielectric flags
 need gradient              =  F 
 need factor depend. sqrt   =  T 
 total dielectric charge    =     -0.1412270
