
     Program PWSCF v.6.1 (svn rev. 13369) starts on  1Feb2018 at 12:30:51 

     This program is part of the open-source Quantum ESPRESSO suite
     for quantum simulation of materials; please cite
         "P. Giannozzi et al., J. Phys.:Condens. Matter 21 395502 (2009);
          URL http://www.quantum-espresso.org", 
     in publications or presentations arising from this work. More details at
     http://www.quantum-espresso.org/quote

     Parallel version (MPI), running on     1 processors
     Reading input from pw.in

     Current dimensions of program PWSCF are:
     Max number of different atomic species (ntypx) = 10
     Max number of k-points (npk) =  40000
     Max angular momentum in pseudopotentials (lmaxx) =  3
               file H.pbe-rrkjus.UPF: wavefunction(s)  1S renormalized
               file O.pbe-rrkjus.UPF: wavefunction(s)  2S renormalized

     gamma-point specific algorithms are used

     Subspace diagonalization in iterative solution of the eigenvalue problem:
     a serial algorithm will be used

 
     G-vector sticks info
     --------------------
     sticks:   dense  smooth     PW     G-vecs:    dense   smooth      PW
     Sum        9549    3809    949               701475   177509   22119
 


     bravais-lattice index     =            1
     lattice parameter (alat)  =      20.0000  a.u.
     unit-cell volume          =    8000.0000 (a.u.)^3
     number of atoms/cell      =            3
     number of atomic types    =            2
     number of electrons       =         8.00
     number of Kohn-Sham states=            4
     kinetic-energy cutoff     =      30.0000  Ry
     charge density cutoff     =     300.0000  Ry
     convergence threshold     =      5.0E-03
     mixing beta               =       0.7000
     number of iterations used =            8  plain     mixing
     Exchange-correlation      =  SLA  PW   PBE  PBE ( 1  4  3  4 0 0)
 

     Environ Module
     ==============

     Plese cite
         O. Andreussi, I. Dabo and N. Marzari, J. Chem. Phys. 136, 064102 (2012)         
     in publications or presentations arising from this work.

     compensation onset threshold      =               0.1000E+03 

     Electrostatic Setup
     -------------------
     electrostatic problem to solve    = generalized              
     numerical solver adopted          = cg                       
     type of auxiliary density adopted = none                     
     type of core tool for poisson     = fft                      
     type of core tool for s(r) deriv  = analytic                 



     celldm(1)=  20.000000  celldm(2)=   0.000000  celldm(3)=   0.000000
     celldm(4)=   0.000000  celldm(5)=   0.000000  celldm(6)=   0.000000

     crystal axes: (cart. coord. in units of alat)
               a(1) = (   1.000000   0.000000   0.000000 )  
               a(2) = (   0.000000   1.000000   0.000000 )  
               a(3) = (   0.000000   0.000000   1.000000 )  

     reciprocal axes: (cart. coord. in units 2 pi/alat)
               b(1) = (  1.000000  0.000000  0.000000 )  
               b(2) = (  0.000000  1.000000  0.000000 )  
               b(3) = (  0.000000  0.000000  1.000000 )  


     PseudoPot. # 1 for H  read from file:
     /home/fnattino/Programs/qe-6.1/Environ/tests/../..//pseudo/H.pbe-rrkjus.UPF
     MD5 check sum: 7cc9d459525c9a0585f487a71c3c9563
     Pseudo is Ultrasoft, Zval =  1.0
     Generated by new atomic code, or converted to UPF format
     Using radial grid of 1061 points,  2 beta functions with: 
                l(1) =   0
                l(2) =   0
     Q(r) pseudized with 0 coefficients 


     PseudoPot. # 2 for O  read from file:
     /home/fnattino/Programs/qe-6.1/Environ/tests/../..//pseudo/O.pbe-rrkjus.UPF
     MD5 check sum: 390ba29e75625707450f3bd3f0eb6be9
     Pseudo is Ultrasoft, Zval =  6.0
     Generated by new atomic code, or converted to UPF format
     Using radial grid of 1269 points,  4 beta functions with: 
                l(1) =   0
                l(2) =   0
                l(3) =   1
                l(4) =   1
     Q(r) pseudized with 0 coefficients 


     atomic species   valence    mass     pseudopotential
        H              1.00     1.00000     H ( 1.00)
        O              6.00    16.00000     O ( 1.00)

     No symmetry found



   Cartesian axes

     site n.     atom                  positions (alat units)
         1           O   tau(   1) = (   0.5895000   0.6025000   0.5750000  )
         2           H   tau(   2) = (   0.6725000   0.5610000   0.5750000  )
         3           H   tau(   3) = (   0.5280000   0.5330000   0.5750000  )

     number of k points=     1
                       cart. coord. in units 2pi/alat
        k(    1) = (   0.0000000   0.0000000   0.0000000), wk =   2.0000000

     Dense  grid:   350738 G-vectors     FFT dimensions: ( 120, 120, 120)

     Smooth grid:    88755 G-vectors     FFT dimensions: (  72,  72,  72)

     Estimated max dynamical RAM per process >     270.62MB

     Initial potential from superposition of free atoms
     Check: negative starting charge=   -0.000775

     starting charge    7.80759, renormalised to    8.00000

     negative rho (up, down):  7.936E-04 0.000E+00
     Starting wfc are    6 randomized atomic wfcs

     total cpu time spent up to now is        3.2 secs

     per-process dynamical memory:   653.4 Mb

     Self-consistent Calculation

     iteration #  1     ecut=    30.00 Ry     beta=0.70
     Davidson diagonalization with overlap
     ethr =  1.00E-02,  avg # of iterations =  2.0

     negative rho (up, down):  2.595E-04 0.000E+00

     add environment contribution to local potential
     polarization accuracy = 4.3E-06, # of iterations =  28

     total cpu time spent up to now is        7.7 secs

     total energy              =     -34.06236055 Ry
     Harris-Foulkes estimate   =     -34.58697711 Ry
     estimated scf accuracy    <       0.68458994 Ry
     electrostatic embedding   =       0.00000000 Ry
     correction to one-el term =       0.00000000 Ry

     iteration #  2     ecut=    30.00 Ry     beta=0.70
     Davidson diagonalization with overlap
     ethr =  8.56E-03,  avg # of iterations =  2.0

     negative rho (up, down):  2.535E-03 0.000E+00

     add environment contribution to local potential
     polarization accuracy = 6.3E-06, # of iterations =  28

     total cpu time spent up to now is       12.6 secs

     total energy              =     -34.22459278 Ry
     Harris-Foulkes estimate   =     -33.85192799 Ry
     estimated scf accuracy    <       0.33150625 Ry
     electrostatic embedding   =      -0.05250491 Ry
     correction to one-el term =      -0.49220066 Ry

     iteration #  3     ecut=    30.00 Ry     beta=0.70
     Davidson diagonalization with overlap
     ethr =  4.14E-03,  avg # of iterations =  2.0

     negative rho (up, down):  1.850E-04 0.000E+00

     add environment contribution to local potential
     polarization accuracy = 2.5E-06, # of iterations =  29

     total cpu time spent up to now is       17.2 secs

     total energy              =     -34.30190650 Ry
     Harris-Foulkes estimate   =     -33.89574804 Ry
     estimated scf accuracy    <       0.01635994 Ry
     electrostatic embedding   =      -0.04343643 Ry
     correction to one-el term =      -0.37205704 Ry

     iteration #  4     ecut=    30.00 Ry     beta=0.70
     Davidson diagonalization with overlap
     ethr =  2.04E-04,  avg # of iterations =  2.0

     negative rho (up, down):  2.124E-04 0.000E+00

     total cpu time spent up to now is       18.6 secs

     End of self-consistent calculation

          k = 0.0000 0.0000 0.0000 ( 11060 PWs)   bands (ev):

   -24.3467 -12.0524  -8.6336  -6.6999

     highest occupied level (ev):    -6.6999

!    total energy              =     -34.30810969 Ry
     Harris-Foulkes estimate   =     -34.10622122 Ry
     estimated scf accuracy    <       0.00018674 Ry

     The total energy is the sum of the following terms:

     one-electron contribution =     -63.77269635 Ry
     hartree contribution      =      33.51103682 Ry
     xc contribution           =      -8.40189065 Ry
     ewald contribution        =       4.55735774 Ry
     electrostatic embedding   =      -0.05118791 Ry
     correction to one-el term =      -0.15072934 Ry

     convergence has been achieved in   4 iterations

     Forces acting on atoms (cartesian axes, Ry/au):

     atom    1 type  2   force =     0.00052131   -0.01093248   -0.00000318
     atom    2 type  1   force =    -0.00396945    0.00452515    0.00000139
     atom    3 type  1   force =     0.00344814    0.00640734    0.00000179

     Total force =     0.014456     Total SCF correction =     0.022038
     SCF correction compared to forces is large: reduce conv_thr to get better values

     Writing output data file pwscf.save
 
     init_run     :      2.98s CPU      3.18s WALL (       1 calls)
     electrons    :     14.01s CPU     15.37s WALL (       1 calls)
     forces       :      0.33s CPU      0.36s WALL (       1 calls)

     Called by init_run:
     wfcinit      :      0.03s CPU      0.03s WALL (       1 calls)
     potinit      :      1.39s CPU      1.48s WALL (       1 calls)

     Called by electrons:
     c_bands      :      0.20s CPU      0.21s WALL (       4 calls)
     sum_band     :      0.97s CPU      1.02s WALL (       4 calls)
     v_of_rho     :      2.50s CPU      2.58s WALL (       5 calls)
     newd         :      0.50s CPU      0.63s WALL (       5 calls)
     mix_rho      :      0.19s CPU      0.19s WALL (       4 calls)

     Called by c_bands:
     init_us_2    :      0.02s CPU      0.02s WALL (       9 calls)
     regterg      :      0.18s CPU      0.19s WALL (       4 calls)

     Called by sum_band:
     sum_band:bec :      0.00s CPU      0.00s WALL (       4 calls)
     addusdens    :      0.57s CPU      0.62s WALL (       4 calls)

     Called by *egterg:
     h_psi        :      0.19s CPU      0.19s WALL (      13 calls)
     s_psi        :      0.00s CPU      0.00s WALL (      13 calls)
     g_psi        :      0.00s CPU      0.00s WALL (       8 calls)
     rdiaghg      :      0.00s CPU      0.00s WALL (      12 calls)

     Called by h_psi:
     h_psi:pot    :      0.19s CPU      0.19s WALL (      13 calls)
     h_psi:calbec :      0.00s CPU      0.00s WALL (      13 calls)
     vloc_psi     :      0.19s CPU      0.19s WALL (      13 calls)
     add_vuspsi   :      0.00s CPU      0.00s WALL (      13 calls)

     General routines
     calbec       :      0.00s CPU      0.01s WALL (      21 calls)
     fft          :      6.66s CPU      7.06s WALL (     313 calls)
     ffts         :      0.02s CPU      0.03s WALL (       9 calls)
     fftw         :      0.13s CPU      0.14s WALL (      62 calls)
     interpolate  :      0.25s CPU      0.30s WALL (       9 calls)
     davcio       :      0.00s CPU      0.00s WALL (       1 calls)
 
     Parallel routines
     fft_scatter  :      1.70s CPU      1.89s WALL (     384 calls)
 
     Environ routines
     calc_eelect  :      0.01s CPU      0.01s WALL (       8 calls)
     calc_velect  :      7.18s CPU      8.15s WALL (       6 calls)
     dielectric   :      1.06s CPU      1.10s WALL (       6 calls)
     calc_felect  :      0.05s CPU      0.05s WALL (       1 calls)
 
     PWSCF        :    17.44s CPU        19.07s WALL

 
   This run was terminated on:  12:31:10   1Feb2018            

=------------------------------------------------------------------------------=
   JOB DONE.
=------------------------------------------------------------------------------=

%%%% IONS %%%%%%%%%%%%%%%%%%%%%%%%%%%%%%%%%%%%%%%%%%%%%%%%%%%%%%%%%%%%%%%%%%%%%%
 number of ions             =          3
 ionic center of charge     =      0.5921875     0.5886250     0.5750000
 total ionic charge         =     -8.0000000
 ionic dipole               =      0.0000000     0.0000000     0.0000000
 ionic quadrupole (pc)      =     -4.2453875    -2.0049500     0.0000000
 ionic quadrupole (gauss)   =     -5.2453875    -3.0049500    -1.0000000
 ion   1 type =  2 coordinates =     11.7900000    12.0500000    11.5000000
 ion   2 type =  1 coordinates =     13.4500000    11.2200000    11.5000000
 ion   3 type =  1 coordinates =     10.5600000    10.6600000    11.5000000

%%%% SYSTEM %%%%%%%%%%%%%%%%%%%%%%%%%%%%%%%%%%%%%%%%%%%%%%%%%%%%%%%%%%%%%%%%%%%%
 system is built from all present ionic types
 system defined dimension   =  0 
 system defined axis        =  3 
 system center              =      0.5921875     0.5886250     0.5750000 
 system width               =      0.0849363 

%%%% ELECTRONS %%%%%%%%%%%%%%%%%%%%%%%%%%%%%%%%%%%%%%%%%%%%%%%%%%%%%%%%%%%%%%%%%
 number of electrons        =          7
 total electronic charge    =      8.0000000
 number of spin components  =  1

%%%% BOUNDARY %%%%%%%%%%%%%%%%%%%%%%%%%%%%%%%%%%%%%%%%%%%%%%%%%%%%%%%%%%%%%%%%%%
 boundary mode              = electronic           
 boundary is built as a function of a smooth density
 function type              =  2 
 using the modified SCCS function with parameters 
 rhomax                     =      0.0050000 
 rhomin                     =      0.0001000 
 volume of the QM region    =    547.0791350 
 surface of the QM region   =    307.1444729 

%%%% DIELECTRIC %%%%%%%%%%%%%%%%%%%%%%%%%%%%%%%%%%%%%%%%%%%%%%%%%%%%%%%%%%%%%%%%%
 dielectric build in the presence of dielectric regions
 environment bulk permitt.  =      1.0000000 
 number of dielec. regions  =    1 
 dielectric flags
 need gradient              =  F 
 need factor depend. sqrt   =  T 
 total dielectric charge    =      0.0000000

%%%% ELECTRONS %%%%%%%%%%%%%%%%%%%%%%%%%%%%%%%%%%%%%%%%%%%%%%%%%%%%%%%%%%%%%%%%%
 number of electrons        =          7
 total electronic charge    =      8.0000000
 number of spin components  =  1

%%%% BOUNDARY %%%%%%%%%%%%%%%%%%%%%%%%%%%%%%%%%%%%%%%%%%%%%%%%%%%%%%%%%%%%%%%%%%
 boundary mode              = electronic           
 boundary is built as a function of a smooth density
 function type              =  2 
 using the modified SCCS function with parameters 
 rhomax                     =      0.0050000 
 rhomin                     =      0.0001000 
 volume of the QM region    =    235.1334505 
 surface of the QM region   =    183.0212450 

%%%% DIELECTRIC %%%%%%%%%%%%%%%%%%%%%%%%%%%%%%%%%%%%%%%%%%%%%%%%%%%%%%%%%%%%%%%%%
 dielectric build in the presence of dielectric regions
 environment bulk permitt.  =      1.0000000 
 number of dielec. regions  =    1 
 dielectric flags
 need gradient              =  F 
 need factor depend. sqrt   =  T 
 total dielectric charge    =      0.0000000

%%%% COMPUTE ELECTROSTATIC POTENTIAL %%%%%%%%%%%%%%%%%%%%%%%%%%%%%%%%%%%%%%%%%%%
 Iteration #          1
  pAp =    27.2659203757958       rzold =    26.1752582811606       alpha = 
  0.959999072849808     
 delta_qm =   0.140564E-01 delta_en =   0.341422E+03 tol =   0.100000E-04
 Iteration #          2
  pAp =    87.6005546003845       rzold =    8.55067697997798       alpha = 
  9.760984983467733E-002
 delta_qm =   0.424541E-02 delta_en =   0.311446E+02 tol =   0.100000E-04
 Iteration #          3
  pAp =    4.01611854960285       rzold =   0.545572364113924       alpha = 
  0.135845682186816     
 delta_qm =   0.112377E-02 delta_en =   0.218223E+01 tol =   0.100000E-04
 Iteration #          4
  pAp =   0.300016007917893       rzold =   4.323854967331787E-002  alpha = 
  0.144120808664154     
 delta_qm =   0.474963E-03 delta_en =   0.389819E+00 tol =   0.100000E-04
 Iteration #          5
  pAp =   8.627923021587129E-003  rzold =   1.895084593456962E-003  alpha = 
  0.219645514768206     
 delta_qm =   0.307587E-03 delta_en =   0.163485E+00 tol =   0.100000E-04
 Iteration #          6
  pAp =   4.360898703375204E-004  rzold =   2.362246917849262E-004  alpha = 
  0.541688096543255     
 delta_qm =   0.187736E-03 delta_en =   0.609032E-01 tol =   0.100000E-04
 Iteration #          7
  pAp =   4.366756316079621E-004  rzold =   1.877530996417874E-004  alpha = 
  0.429960103224510     
 delta_qm =   0.202146E-03 delta_en =   0.706116E-01 tol =   0.100000E-04
 Iteration #          8
  pAp =   2.293430256199684E-004  rzold =   1.209413485439051E-004  alpha = 
  0.527338244609671     
 delta_qm =   0.212069E-03 delta_en =   0.777137E-01 tol =   0.100000E-04
 Iteration #          9
  pAp =   1.596344784709823E-004  rzold =   1.346711968777919E-004  alpha = 
  0.843622243563579     
 delta_qm =   0.169466E-03 delta_en =   0.496260E-01 tol =   0.100000E-04
 Iteration #         10
  pAp =   1.210884596129290E-003  rzold =   2.730321667654951E-004  alpha = 
  0.225481575732542     
 delta_qm =   0.113588E-03 delta_en =   0.222952E-01 tol =   0.100000E-04
 Iteration #         11
  pAp =   3.081012834551537E-004  rzold =   9.275818428743516E-005  alpha = 
  0.301063933415703     
 delta_qm =   0.687971E-04 delta_en =   0.817870E-02 tol =   0.100000E-04
 Iteration #         12
  pAp =   6.940070886476316E-005  rzold =   2.208742814186224E-005  alpha = 
  0.318259402579052     
 delta_qm =   0.552207E-04 delta_en =   0.526924E-02 tol =   0.100000E-04
 Iteration #         13
  pAp =   3.274098408451478E-006  rzold =   4.727842611843866E-006  alpha = 
   1.44401359459441     
 delta_qm =   0.406724E-04 delta_en =   0.285853E-02 tol =   0.100000E-04
 Iteration #         14
  pAp =   2.710297509884258E-005  rzold =   9.827962237412472E-006  alpha = 
  0.362615624357496     
 delta_qm =   0.443131E-04 delta_en =   0.339320E-02 tol =   0.100000E-04
 Iteration #         15
  pAp =   1.219853422186567E-005  rzold =   4.233270259225681E-006  alpha = 
  0.347031059816811     
 delta_qm =   0.341052E-04 delta_en =   0.200995E-02 tol =   0.100000E-04
 Iteration #         16
  pAp =   8.800054254874597E-006  rzold =   2.643324427306844E-006  alpha = 
  0.300375923914632     
 delta_qm =   0.212884E-04 delta_en =   0.783126E-03 tol =   0.100000E-04
 Iteration #         17
  pAp =   4.433668653215478E-006  rzold =   1.319276296779662E-006  alpha = 
  0.297558613412139     
 delta_qm =   0.134089E-04 delta_en =   0.310692E-03 tol =   0.100000E-04
 Iteration #         18
  pAp =   1.237479478015309E-006  rzold =   7.488439478144072E-007  alpha = 
  0.605136457709518     
 delta_qm =   0.165900E-04 delta_en =   0.475593E-03 tol =   0.100000E-04
 Iteration #         19
  pAp =   5.059987897216414E-007  rzold =   4.657687825556847E-007  alpha = 
  0.920493866817176     
 delta_qm =   0.210907E-04 delta_en =   0.768646E-03 tol =   0.100000E-04
 Iteration #         20
  pAp =   1.632803114941360E-006  rzold =   1.111546208944635E-006  alpha = 
  0.680759485802766     
 delta_qm =   0.223111E-04 delta_en =   0.860171E-03 tol =   0.100000E-04
 Iteration #         21
  pAp =   2.044969316906074E-006  rzold =   1.496048165549468E-006  alpha = 
  0.731574871652797     
 delta_qm =   0.234865E-04 delta_en =   0.953192E-03 tol =   0.100000E-04
 Iteration #         22
  pAp =   1.362639467856810E-006  rzold =   9.799095097235817E-007  alpha = 
  0.719126029179828     
 delta_qm =   0.188650E-04 delta_en =   0.614974E-03 tol =   0.100000E-04
 Iteration #         23
  pAp =   1.053494485149450E-006  rzold =   5.989880686408145E-007  alpha = 
  0.568572571650284     
 delta_qm =   0.125426E-04 delta_en =   0.271843E-03 tol =   0.100000E-04
 Iteration #         24
  pAp =   2.074153964484359E-006  rzold =   5.778144175566957E-007  alpha = 
  0.278578363733158     
 delta_qm =   0.829827E-05 delta_en =   0.118992E-03 tol =   0.100000E-04
 Iteration #         25
  pAp =   3.526160459774876E-006  rzold =   5.781907741310441E-007  alpha = 
  0.163971770634612     
 delta_qm =   0.684310E-05 delta_en =   0.809189E-04 tol =   0.100000E-04
 Iteration #         26
  pAp =   3.211072907770920E-007  rzold =   1.198078023757028E-007  alpha = 
  0.373108321787909     
 delta_qm =   0.537889E-05 delta_en =   0.499953E-04 tol =   0.100000E-04
 Iteration #         27
  pAp =   8.626097437799024E-008  rzold =   5.138389264981351E-008  alpha = 
  0.595679483339157     
 delta_qm =   0.320918E-05 delta_en =   0.177964E-04 tol =   0.100000E-04
 Iteration #         28
  pAp =   5.922414140968593E-008  rzold =   2.891227866017282E-008  alpha = 
  0.488184006926680     
 delta_qm =   0.158455E-05 delta_en =   0.433867E-05 tol =   0.100000E-04
 Charges are converged, EXIT

%%%% ELECTRONS %%%%%%%%%%%%%%%%%%%%%%%%%%%%%%%%%%%%%%%%%%%%%%%%%%%%%%%%%%%%%%%%%
 number of electrons        =          7
 total electronic charge    =      8.0000000
 number of spin components  =  1

%%%% BOUNDARY %%%%%%%%%%%%%%%%%%%%%%%%%%%%%%%%%%%%%%%%%%%%%%%%%%%%%%%%%%%%%%%%%%
 boundary mode              = electronic           
 boundary is built as a function of a smooth density
 function type              =  2 
 using the modified SCCS function with parameters 
 rhomax                     =      0.0050000 
 rhomin                     =      0.0001000 
 volume of the QM region    =    263.9819778 
 surface of the QM region   =    197.7642888 

%%%% DIELECTRIC %%%%%%%%%%%%%%%%%%%%%%%%%%%%%%%%%%%%%%%%%%%%%%%%%%%%%%%%%%%%%%%%%
 dielectric build in the presence of dielectric regions
 environment bulk permitt.  =      1.0000000 
 number of dielec. regions  =    1 
 dielectric flags
 need gradient              =  F 
 need factor depend. sqrt   =  T 
 total dielectric charge    =      0.0011632

%%%% COMPUTE ELECTROSTATIC POTENTIAL %%%%%%%%%%%%%%%%%%%%%%%%%%%%%%%%%%%%%%%%%%%
 Warning: bad guess with residual norm =   0.322681E+03, reset to no guess
 Iteration #          1
  pAp =    29.3995942529268       rzold =    28.5370795315231       alpha = 
  0.970662359691652     
 delta_qm =   0.133183E-01 delta_en =   0.306506E+03 tol =   0.100000E-04
 Iteration #          2
  pAp =    67.4605227460400       rzold =    6.72723717477831       alpha = 
  9.972109466307388E-002
 delta_qm =   0.366067E-02 delta_en =   0.231561E+02 tol =   0.100000E-04
 Iteration #          3
  pAp =    2.66625546887999       rzold =   0.385873807325397       alpha = 
  0.144724994221012     
 delta_qm =   0.918509E-03 delta_en =   0.145784E+01 tol =   0.100000E-04
 Iteration #          4
  pAp =   0.210692721503776       rzold =   2.945892781475176E-002  alpha = 
  0.139819390079044     
 delta_qm =   0.434522E-03 delta_en =   0.326262E+00 tol =   0.100000E-04
 Iteration #          5
  pAp =   5.651230573736923E-003  rzold =   1.275592329465221E-003  alpha = 
  0.225719392054769     
 delta_qm =   0.307086E-03 delta_en =   0.162953E+00 tol =   0.100000E-04
 Iteration #          6
  pAp =   3.175970912311284E-004  rzold =   1.979677127569406E-004  alpha = 
  0.623329741432901     
 delta_qm =   0.207002E-03 delta_en =   0.740445E-01 tol =   0.100000E-04
 Iteration #          7
  pAp =   5.728498241058997E-004  rzold =   2.329553650375999E-004  alpha = 
  0.406660446132099     
 delta_qm =   0.254954E-03 delta_en =   0.112323E+00 tol =   0.100000E-04
 Iteration #          8
  pAp =   1.682159174788394E-004  rzold =   1.355221700692919E-004  alpha = 
  0.805644151281580     
 delta_qm =   0.257876E-03 delta_en =   0.114912E+00 tol =   0.100000E-04
 Iteration #          9
  pAp =   2.547267424340976E-004  rzold =   2.110156259252069E-004  alpha = 
  0.828399970528420     
 delta_qm =   0.161591E-03 delta_en =   0.451212E-01 tol =   0.100000E-04
 Iteration #         10
  pAp =   4.935200138295487E-004  rzold =   1.661165381069638E-004  alpha = 
  0.336595342543366     
 delta_qm =   0.101137E-03 delta_en =   0.176750E-01 tol =   0.100000E-04
 Iteration #         11
  pAp =   1.988875850042054E-004  rzold =   4.918096347070173E-005  alpha = 
  0.247280208413521     
 delta_qm =   0.910483E-04 delta_en =   0.143248E-01 tol =   0.100000E-04
 Iteration #         12
  pAp =   9.139222414280591E-005  rzold =   2.843159051704962E-005  alpha = 
  0.311094196292056     
 delta_qm =   0.866724E-04 delta_en =   0.129809E-01 tol =   0.100000E-04
 Iteration #         13
  pAp =   1.623107224245824E-005  rzold =   1.815265658830527E-005  alpha = 
   1.11838924238292     
 delta_qm =   0.790364E-04 delta_en =   0.107944E-01 tol =   0.100000E-04
 Iteration #         14
  pAp =   9.726132028786057E-005  rzold =   4.037672575738923E-005  alpha = 
  0.415136517146670     
 delta_qm =   0.925486E-04 delta_en =   0.148007E-01 tol =   0.100000E-04
 Iteration #         15
  pAp =   4.213557846406117E-005  rzold =   1.599787230741280E-005  alpha = 
  0.379676104863682     
 delta_qm =   0.756332E-04 delta_en =   0.988483E-02 tol =   0.100000E-04
 Iteration #         16
  pAp =   1.541113331017255E-005  rzold =   9.681225508688636E-006  alpha = 
  0.628196857027917     
 delta_qm =   0.506734E-04 delta_en =   0.443715E-02 tol =   0.100000E-04
 Iteration #         17
  pAp =   1.520095415042613E-005  rzold =   7.885796579240346E-006  alpha = 
  0.518769841761498     
 delta_qm =   0.608860E-04 delta_en =   0.640587E-02 tol =   0.100000E-04
 Iteration #         18
  pAp =   3.213070932291959E-005  rzold =   1.484020626684329E-005  alpha = 
  0.461869861561301     
 delta_qm =   0.956298E-04 delta_en =   0.158027E-01 tol =   0.100000E-04
 Iteration #         19
  pAp =   3.306696284479089E-005  rzold =   1.546395512933265E-005  alpha = 
  0.467655744554378     
 delta_qm =   0.106757E-03 delta_en =   0.196942E-01 tol =   0.100000E-04
 Iteration #         20
  pAp =   2.857105329432659E-005  rzold =   1.789774908639272E-005  alpha = 
  0.626429445985693     
 delta_qm =   0.732442E-04 delta_en =   0.927021E-02 tol =   0.100000E-04
 Iteration #         21
  pAp =   1.942799355033043E-005  rzold =   1.034364115459703E-005  alpha = 
  0.532409130556928     
 delta_qm =   0.478893E-04 delta_en =   0.396297E-02 tol =   0.100000E-04
 Iteration #         22
  pAp =   8.139095927231884E-006  rzold =   3.761071410856335E-006  alpha = 
  0.462099408150787     
 delta_qm =   0.319769E-04 delta_en =   0.176692E-02 tol =   0.100000E-04
 Iteration #         23
  pAp =   2.038241779706132E-006  rzold =   1.503225094997857E-006  alpha = 
  0.737510686889456     
 delta_qm =   0.182842E-04 delta_en =   0.577692E-03 tol =   0.100000E-04
 Iteration #         24
  pAp =   3.247190010553547E-006  rzold =   9.507039963900271E-007  alpha = 
  0.292777445514487     
 delta_qm =   0.159417E-04 delta_en =   0.439148E-03 tol =   0.100000E-04
 Iteration #         25
  pAp =   6.020551027541781E-006  rzold =   1.136569629131663E-006  alpha = 
  0.188781661999422     
 delta_qm =   0.124702E-04 delta_en =   0.268715E-03 tol =   0.100000E-04
 Iteration #         26
  pAp =   5.849413043983192E-007  rzold =   2.222901521054750E-007  alpha = 
  0.380021295186406     
 delta_qm =   0.912864E-05 delta_en =   0.143998E-03 tol =   0.100000E-04
 Iteration #         27
  pAp =   2.603170035759470E-007  rzold =   1.160384612936624E-007  alpha = 
  0.445758285857836     
 delta_qm =   0.469527E-05 delta_en =   0.380947E-04 tol =   0.100000E-04
 Iteration #         28
  pAp =   5.661552261446372E-008  rzold =   2.910209668393444E-008  alpha = 
  0.514030346096278     
 delta_qm =   0.191057E-05 delta_en =   0.630770E-05 tol =   0.100000E-04
 Charges are converged, EXIT

%%%% ELECTRONS %%%%%%%%%%%%%%%%%%%%%%%%%%%%%%%%%%%%%%%%%%%%%%%%%%%%%%%%%%%%%%%%%
 number of electrons        =          7
 total electronic charge    =      8.0000000
 number of spin components  =  1

%%%% BOUNDARY %%%%%%%%%%%%%%%%%%%%%%%%%%%%%%%%%%%%%%%%%%%%%%%%%%%%%%%%%%%%%%%%%%
 boundary mode              = electronic           
 boundary is built as a function of a smooth density
 function type              =  2 
 using the modified SCCS function with parameters 
 rhomax                     =      0.0050000 
 rhomin                     =      0.0001000 
 volume of the QM region    =    242.8837757 
 surface of the QM region   =    187.4112521 

%%%% DIELECTRIC %%%%%%%%%%%%%%%%%%%%%%%%%%%%%%%%%%%%%%%%%%%%%%%%%%%%%%%%%%%%%%%%%
 dielectric build in the presence of dielectric regions
 environment bulk permitt.  =      1.0000000 
 number of dielec. regions  =    1 
 dielectric flags
 need gradient              =  F 
 need factor depend. sqrt   =  T 
 total dielectric charge    =      0.0025461

%%%% COMPUTE ELECTROSTATIC POTENTIAL %%%%%%%%%%%%%%%%%%%%%%%%%%%%%%%%%%%%%%%%%%%
 Warning: bad guess with residual norm =   0.353216E+03, reset to no guess
 Iteration #          1
  pAp =    29.2462710765173       rzold =    28.3993835816329       alpha = 
  0.971042889786917     
 delta_qm =   0.139326E-01 delta_en =   0.335433E+03 tol =   0.100000E-04
 Iteration #          2
  pAp =    58.8912910217056       rzold =    6.16826319828327       alpha = 
  0.104739819611185     
 delta_qm =   0.371774E-02 delta_en =   0.238837E+02 tol =   0.100000E-04
 Iteration #          3
  pAp =    3.84835953325402       rzold =   0.481994803809184       alpha = 
  0.125246822612135     
 delta_qm =   0.109945E-02 delta_en =   0.208878E+01 tol =   0.100000E-04
 Iteration #          4
  pAp =   0.308831121431174       rzold =   4.190896890605939E-002  alpha = 
  0.135701896595934     
 delta_qm =   0.474775E-03 delta_en =   0.389510E+00 tol =   0.100000E-04
 Iteration #          5
  pAp =   6.871777700725981E-003  rzold =   1.523402855837522E-003  alpha = 
  0.221689775511303     
 delta_qm =   0.341447E-03 delta_en =   0.201460E+00 tol =   0.100000E-04
 Iteration #          6
  pAp =   3.627059366302582E-004  rzold =   2.492619459308898E-004  alpha = 
  0.687228745817268     
 delta_qm =   0.230728E-03 delta_en =   0.919910E-01 tol =   0.100000E-04
 Iteration #          7
  pAp =   7.515623667098095E-004  rzold =   3.150249041594125E-004  alpha = 
  0.419160029976659     
 delta_qm =   0.314163E-03 delta_en =   0.170551E+00 tol =   0.100000E-04
 Iteration #          8
  pAp =   2.751868981694244E-004  rzold =   2.110090684557213E-004  alpha = 
  0.766784573900060     
 delta_qm =   0.324411E-03 delta_en =   0.181859E+00 tol =   0.100000E-04
 Iteration #          9
  pAp =   4.600370637376537E-004  rzold =   3.338919452819458E-004  alpha = 
  0.725793575346258     
 delta_qm =   0.209236E-03 delta_en =   0.756512E-01 tol =   0.100000E-04
 Iteration #         10
  pAp =   1.790895142080125E-003  rzold =   3.610483535729537E-004  alpha = 
  0.201602173733966     
 delta_qm =   0.152364E-03 delta_en =   0.401151E-01 tol =   0.100000E-04
 Iteration #         11
  pAp =   4.830210203075321E-004  rzold =   1.364474734974207E-004  alpha = 
  0.282487651180370     
 delta_qm =   0.117932E-03 delta_en =   0.240329E-01 tol =   0.100000E-04
 Iteration #         12
  pAp =   5.832568970890251E-005  rzold =   3.269751739384689E-005  alpha = 
  0.560602327328435     
 delta_qm =   0.114559E-03 delta_en =   0.226780E-01 tol =   0.100000E-04
 Iteration #         13
  pAp =   3.447728385257017E-005  rzold =   3.800666251458035E-005  alpha = 
   1.10236823402627     
 delta_qm =   0.117822E-03 delta_en =   0.239880E-01 tol =   0.100000E-04
 Iteration #         14
  pAp =   2.190230734005350E-004  rzold =   8.157605099341868E-005  alpha = 
  0.372454142510537     
 delta_qm =   0.136346E-03 delta_en =   0.321239E-01 tol =   0.100000E-04
 Iteration #         15
  pAp =   5.878595356281276E-005  rzold =   2.831049075282305E-005  alpha = 
  0.481585974829401     
 delta_qm =   0.102547E-03 delta_en =   0.181715E-01 tol =   0.100000E-04
 Iteration #         16
  pAp =   4.151249650654566E-005  rzold =   2.452914557516911E-005  alpha = 
  0.590885820882909     
 delta_qm =   0.779485E-04 delta_en =   0.104993E-01 tol =   0.100000E-04
 Iteration #         17
  pAp =   2.122320549575457E-005  rzold =   1.870941440368333E-005  alpha = 
  0.881554598688021     
 delta_qm =   0.125213E-03 delta_en =   0.270919E-01 tol =   0.100000E-04
 Iteration #         18
  pAp =   9.264566273825757E-005  rzold =   3.569804072796508E-005  alpha = 
  0.385317991936861     
 delta_qm =   0.152973E-03 delta_en =   0.404363E-01 tol =   0.100000E-04
 Iteration #         19
  pAp =   8.550658894877125E-005  rzold =   3.894168145553358E-005  alpha = 
  0.455423166030683     
 delta_qm =   0.132876E-03 delta_en =   0.305099E-01 tol =   0.100000E-04
 Iteration #         20
  pAp =   1.292037080544206E-004  rzold =   4.229242624773679E-005  alpha = 
  0.327331365984661     
 delta_qm =   0.861394E-04 delta_en =   0.128218E-01 tol =   0.100000E-04
 Iteration #         21
  pAp =   3.219277287843300E-005  rzold =   1.648438489809742E-005  alpha = 
  0.512052346666318     
 delta_qm =   0.514607E-04 delta_en =   0.457610E-02 tol =   0.100000E-04
 Iteration #         22
  pAp =   7.057098503190262E-006  rzold =   4.471810557967758E-006  alpha = 
  0.633661349058145     
 delta_qm =   0.358568E-04 delta_en =   0.222170E-02 tol =   0.100000E-04
 Iteration #         23
  pAp =   5.121866243845194E-006  rzold =   2.668254364055181E-006  alpha = 
  0.520953542522035     
 delta_qm =   0.247540E-04 delta_en =   0.105885E-02 tol =   0.100000E-04
 Iteration #         24
  pAp =   3.521416110908711E-006  rzold =   1.495729621257612E-006  alpha = 
  0.424752308204677     
 delta_qm =   0.155171E-04 delta_en =   0.416069E-03 tol =   0.100000E-04
 Iteration #         25
  pAp =   3.588474463597624E-006  rzold =   6.912860484941041E-007  alpha = 
  0.192640648695339     
 delta_qm =   0.120582E-04 delta_en =   0.251253E-03 tol =   0.100000E-04
 Iteration #         26
  pAp =   2.330937530379372E-006  rzold =   5.309990335097390E-007  alpha = 
  0.227804918231042     
 delta_qm =   0.838725E-05 delta_en =   0.121558E-03 tol =   0.100000E-04
 Iteration #         27
  pAp =   4.647798365093501E-007  rzold =   1.747505188846803E-007  alpha = 
  0.375985585341039     
 delta_qm =   0.549096E-05 delta_en =   0.521003E-04 tol =   0.100000E-04
 Iteration #         28
  pAp =   9.562339495887070E-008  rzold =   5.068181785903903E-008  alpha = 
  0.530014834558407     
 delta_qm =   0.269454E-05 delta_en =   0.125462E-04 tol =   0.100000E-04
 Iteration #         29
  pAp =   2.511823638445196E-008  rzold =   1.156114386784606E-008  alpha = 
  0.460268933331734     
 delta_qm =   0.121302E-05 delta_en =   0.254262E-05 tol =   0.100000E-04
 Charges are converged, EXIT

%%%% ELECTRONS %%%%%%%%%%%%%%%%%%%%%%%%%%%%%%%%%%%%%%%%%%%%%%%%%%%%%%%%%%%%%%%%%
 number of electrons        =          7
 total electronic charge    =      8.0000000
 number of spin components  =  1

%%%% BOUNDARY %%%%%%%%%%%%%%%%%%%%%%%%%%%%%%%%%%%%%%%%%%%%%%%%%%%%%%%%%%%%%%%%%%
 boundary mode              = electronic           
 boundary is built as a function of a smooth density
 function type              =  2 
 using the modified SCCS function with parameters 
 rhomax                     =      0.0050000 
 rhomin                     =      0.0001000 
 volume of the QM region    =    242.8837757 
 surface of the QM region   =    187.4112521 

%%%% DIELECTRIC %%%%%%%%%%%%%%%%%%%%%%%%%%%%%%%%%%%%%%%%%%%%%%%%%%%%%%%%%%%%%%%%%
 dielectric build in the presence of dielectric regions
 environment bulk permitt.  =      1.0000000 
 number of dielec. regions  =    1 
 dielectric flags
 need gradient              =  F 
 need factor depend. sqrt   =  T 
 total dielectric charge    =      0.0022132
