
     Program PWSCF v.6.7MaX starts on  1Oct2021 at 20:49:32 

     This program is part of the open-source Quantum ESPRESSO suite
     for quantum simulation of materials; please cite
         "P. Giannozzi et al., J. Phys.:Condens. Matter 21 395502 (2009);
         "P. Giannozzi et al., J. Phys.:Condens. Matter 29 465901 (2017);
          URL http://www.quantum-espresso.org", 
     in publications or presentations arising from this work. More details at
     http://www.quantum-espresso.org/quote

     Parallel version (MPI), running on     1 processors

     MPI processes distributed on     1 nodes
     Reading input from pw.in

     Current dimensions of program PWSCF are:
     Max number of different atomic species (ntypx) = 10
     Max number of k-points (npk) =  40000
     Max angular momentum in pseudopotentials (lmaxx) =  3

     Reading input from environ.in

     ================================================================================

     Reading ENVIRON namelist

     Reading BOUNDARY namelist

     Checking boundary derivatives
     derivatives               = chain          ! SCCS default

     Reading ELECTROSTATIC namelist

     Setting up electrostatic problem
     problem                   = generalized    
     solver                    = cg             

     Checking PBC correction
     pbc_correction            = none           ! default

     Reading DIELECTRIC_REGIONS card
     region spread             = 0.5 (a.u.)     ! default
     region dimensions         = 0              ! default

     ================================================================================
 
     file H.pbe-rrkjus.UPF: wavefunction(s)  1S renormalized
     file O.pbe-rrkjus.UPF: wavefunction(s)  2S renormalized

     gamma-point specific algorithms are used

     Subspace diagonalization in iterative solution of the eigenvalue problem:
     a serial algorithm will be used

 
     G-vector sticks info
     --------------------
     sticks:   dense  smooth     PW     G-vecs:    dense   smooth      PW
     Sum        9549    3809    949               701475   177509   22119
 


     bravais-lattice index     =            1
     lattice parameter (alat)  =      20.0000  a.u.
     unit-cell volume          =    8000.0000 (a.u.)^3
     number of atoms/cell      =            3
     number of atomic types    =            2
     number of electrons       =         8.00
     number of Kohn-Sham states=            4
     kinetic-energy cutoff     =      30.0000  Ry
     charge density cutoff     =     300.0000  Ry
     scf convergence threshold =      1.0E-08
     mixing beta               =       0.3000
     number of iterations used =            8  plain     mixing
     Exchange-correlation= SLA  PW   PBE  PBE
                           (   1   4   3   4   0   0   0)
 

     Environ Module
     ==============

     Please cite
         O. Andreussi, I. Dabo and N. Marzari, J. Chem. Phys. 136, 064102 (2012)         
     in publications or presentations arising from this work.

     compensation onset threshold      =               0.1000E+03
     switching function adopted        =                     SCCS
     density limit for vacuum region   =               0.5000E-02
     density limit for bulk solvent    =               0.1000E-03

     Electrostatic Setup
     -------------------
     electrostatic problem to solve    = generalized             
     numerical solver adopted          = cg                      
     type of auxiliary density adopted = none                    
     type of core tool for poisson     = fft                     



     celldm(1)=  20.000000  celldm(2)=   0.000000  celldm(3)=   0.000000
     celldm(4)=   0.000000  celldm(5)=   0.000000  celldm(6)=   0.000000

     crystal axes: (cart. coord. in units of alat)
               a(1) = (   1.000000   0.000000   0.000000 )  
               a(2) = (   0.000000   1.000000   0.000000 )  
               a(3) = (   0.000000   0.000000   1.000000 )  

     reciprocal axes: (cart. coord. in units 2 pi/alat)
               b(1) = (  1.000000  0.000000  0.000000 )  
               b(2) = (  0.000000  1.000000  0.000000 )  
               b(3) = (  0.000000  0.000000  1.000000 )  


     PseudoPot. # 1 for H  read from file:
     /home/simplogic86/Work/QE1/Environ/tests/../..//pseudo/H.pbe-rrkjus.UPF
     MD5 check sum: 2d52a7f45632fd764c17cc6affed14c8
     Pseudo is Ultrasoft, Zval =  1.0
     Generated by new atomic code, or converted to UPF format
     Using radial grid of 1061 points,  2 beta functions with: 
                l(1) =   0
                l(2) =   0
     Q(r) pseudized with 0 coefficients 


     PseudoPot. # 2 for O  read from file:
     /home/simplogic86/Work/QE1/Environ/tests/../..//pseudo/O.pbe-rrkjus.UPF
     MD5 check sum: fadcf19ee70a498d3030e2e79cf929a4
     Pseudo is Ultrasoft, Zval =  6.0
     Generated by new atomic code, or converted to UPF format
     Using radial grid of 1269 points,  4 beta functions with: 
                l(1) =   0
                l(2) =   0
                l(3) =   1
                l(4) =   1
     Q(r) pseudized with 0 coefficients 


     atomic species   valence    mass     pseudopotential
        H              1.00     1.00000     H ( 1.00)
        O              6.00    16.00000     O ( 1.00)

     No symmetry found



   Cartesian axes

     site n.     atom                  positions (alat units)
         1           O   tau(   1) = (   0.5895000   0.6025000   0.5750000  )
         2           H   tau(   2) = (   0.6725000   0.5610000   0.5750000  )
         3           H   tau(   3) = (   0.5280000   0.5330000   0.5750000  )

     number of k points=     1
                       cart. coord. in units 2pi/alat
        k(    1) = (   0.0000000   0.0000000   0.0000000), wk =   2.0000000

     Dense  grid:   350738 G-vectors     FFT dimensions: ( 120, 120, 120)

     Smooth grid:    88755 G-vectors     FFT dimensions: (  72,  72,  72)

     Estimated max dynamical RAM per process >     530.91 MB

     Initial potential from superposition of free atoms

     starting charge    7.80759, renormalised to    8.00000

     negative rho (up, down):  7.936E-04 0.000E+00
     Starting wfcs are    6 randomized atomic wfcs

     total cpu time spent up to now is        3.1 secs

     Self-consistent Calculation

     iteration #  1     ecut=    30.00 Ry     beta= 0.30
     Davidson diagonalization with overlap
     ethr =  1.00E-02,  avg # of iterations =  2.0

     negative rho (up, down):  5.566E-04 0.000E+00

     add environment contribution to local potential
     Polarization accuracy = 6.3E-14, # of iterations =  37

     total cpu time spent up to now is        8.5 secs

     total energy              =     -34.29681090 Ry
     estimated scf accuracy    <       0.67469661 Ry
     electrostatic embedding   =       0.00000000 Ry
     correction to one-el term =       0.00000000 Ry

     iteration #  2     ecut=    30.00 Ry     beta= 0.30
     Davidson diagonalization with overlap
     ethr =  8.43E-03,  avg # of iterations =  1.0

     negative rho (up, down):  6.722E-04 0.000E+00

     add environment contribution to local potential
     Polarization accuracy = 6.7E-14, # of iterations =  49

     total cpu time spent up to now is       16.3 secs

     total energy              =     -34.26548536 Ry
     estimated scf accuracy    <       0.16797705 Ry
     electrostatic embedding   =      -0.04590663 Ry
     correction to one-el term =      -0.82127182 Ry

     iteration #  3     ecut=    30.00 Ry     beta= 0.30
     Davidson diagonalization with overlap
     ethr =  2.10E-03,  avg # of iterations =  2.0

     negative rho (up, down):  1.653E-03 0.000E+00

     add environment contribution to local potential
     Polarization accuracy = 7.3E-14, # of iterations =  54

     total cpu time spent up to now is       23.5 secs

     total energy              =     -34.28620215 Ry
     estimated scf accuracy    <       0.03782020 Ry
     electrostatic embedding   =      -0.03664656 Ry
     correction to one-el term =      -0.46578559 Ry

     iteration #  4     ecut=    30.00 Ry     beta= 0.30
     Davidson diagonalization with overlap
     ethr =  4.73E-04,  avg # of iterations =  2.0

     negative rho (up, down):  1.672E-03 0.000E+00

     add environment contribution to local potential
     Polarization accuracy = 6.1E-14, # of iterations =  54

     total cpu time spent up to now is       31.3 secs

     total energy              =     -34.29228147 Ry
     estimated scf accuracy    <       0.01681784 Ry
     electrostatic embedding   =      -0.03024772 Ry
     correction to one-el term =      -0.21438137 Ry

     iteration #  5     ecut=    30.00 Ry     beta= 0.30
     Davidson diagonalization with overlap
     ethr =  2.10E-04,  avg # of iterations =  2.0

     negative rho (up, down):  9.375E-04 0.000E+00

     add environment contribution to local potential
     Polarization accuracy = 4.0E-14, # of iterations =  54

     total cpu time spent up to now is       38.3 secs

     total energy              =     -34.29476240 Ry
     estimated scf accuracy    <       0.00111037 Ry
     electrostatic embedding   =      -0.03200048 Ry
     correction to one-el term =      -0.10983175 Ry

     iteration #  6     ecut=    30.00 Ry     beta= 0.30
     Davidson diagonalization with overlap
     ethr =  1.39E-05,  avg # of iterations =  2.0

     negative rho (up, down):  1.553E-03 0.000E+00

     add environment contribution to local potential
     Polarization accuracy = 2.1E-14, # of iterations =  54

     total cpu time spent up to now is       45.4 secs

     total energy              =     -34.29525050 Ry
     estimated scf accuracy    <       0.00013397 Ry
     electrostatic embedding   =      -0.03361447 Ry
     correction to one-el term =      -0.10999877 Ry

     iteration #  7     ecut=    30.00 Ry     beta= 0.30
     Davidson diagonalization with overlap
     ethr =  1.67E-06,  avg # of iterations =  1.0

     negative rho (up, down):  1.149E-03 0.000E+00

     add environment contribution to local potential
     Polarization accuracy = 8.7E-14, # of iterations =  53

     total cpu time spent up to now is       52.3 secs

     total energy              =     -34.29531400 Ry
     estimated scf accuracy    <       0.00000563 Ry
     electrostatic embedding   =      -0.03427434 Ry
     correction to one-el term =      -0.07516205 Ry

     iteration #  8     ecut=    30.00 Ry     beta= 0.30
     Davidson diagonalization with overlap
     ethr =  7.04E-08,  avg # of iterations =  2.0

     negative rho (up, down):  7.549E-04 0.000E+00

     add environment contribution to local potential
     Polarization accuracy = 6.8E-14, # of iterations =  53

     total cpu time spent up to now is       59.2 secs

     total energy              =     -34.29531612 Ry
     estimated scf accuracy    <       0.00000306 Ry
     electrostatic embedding   =      -0.03435434 Ry
     correction to one-el term =      -0.07472158 Ry

     iteration #  9     ecut=    30.00 Ry     beta= 0.30
     Davidson diagonalization with overlap
     ethr =  3.83E-08,  avg # of iterations =  2.0

     negative rho (up, down):  5.435E-04 0.000E+00

     add environment contribution to local potential
     Polarization accuracy = 7.0E-14, # of iterations =  53

     total cpu time spent up to now is       66.2 secs

     total energy              =     -34.29531708 Ry
     estimated scf accuracy    <       0.00000132 Ry
     electrostatic embedding   =      -0.03442499 Ry
     correction to one-el term =      -0.07560431 Ry

     iteration # 10     ecut=    30.00 Ry     beta= 0.30
     Davidson diagonalization with overlap
     ethr =  1.66E-08,  avg # of iterations =  2.0

     negative rho (up, down):  3.941E-04 0.000E+00

     add environment contribution to local potential
     Polarization accuracy = 7.7E-14, # of iterations =  53

     total cpu time spent up to now is       73.2 secs

     total energy              =     -34.29531762 Ry
     estimated scf accuracy    <       0.00000020 Ry
     electrostatic embedding   =      -0.03450087 Ry
     correction to one-el term =      -0.07574128 Ry

     iteration # 11     ecut=    30.00 Ry     beta= 0.30
     Davidson diagonalization with overlap
     ethr =  2.55E-09,  avg # of iterations =  2.0

     negative rho (up, down):  3.111E-04 0.000E+00

     add environment contribution to local potential
     Polarization accuracy = 9.8E-14, # of iterations =  52

     total cpu time spent up to now is       80.0 secs

     total energy              =     -34.29531797 Ry
     estimated scf accuracy    <       0.00000004 Ry
     electrostatic embedding   =      -0.03456468 Ry
     correction to one-el term =      -0.07615131 Ry

     iteration # 12     ecut=    30.00 Ry     beta= 0.30
     Davidson diagonalization with overlap
     ethr =  4.79E-10,  avg # of iterations =  2.0

     negative rho (up, down):  2.121E-04 0.000E+00

     the potential shift due to the Gaussian-smeared nuclei is    -0.0214 ev

     total cpu time spent up to now is       81.3 secs

     End of self-consistent calculation

          k = 0.0000 0.0000 0.0000 ( 11060 PWs)   bands (ev):

   -24.6099 -12.3748  -8.8140  -6.8494

     highest occupied level (ev):    -6.8494

!    total energy              =     -34.29531776 Ry
     estimated scf accuracy    <          6.7E-09 Ry

     The total energy is the sum of the following terms:
     one-electron contribution =     -63.83442155 Ry
     hartree contribution      =      33.49676993 Ry
     xc contribution           =      -8.40425486 Ry
     ewald contribution        =       4.55735774 Ry
     electrostatic embedding   =      -0.03457827 Ry
     correction to one-el term =      -0.07619076 Ry

     convergence has been achieved in  12 iterations

     Forces acting on atoms (cartesian axes, Ry/au):

     atom    1 type  2   force =     0.00224740   -0.01210800    0.00000003
     atom    2 type  1   force =    -0.00997644    0.00430720   -0.00000001
     atom    3 type  1   force =     0.00772904    0.00780081   -0.00000002

     Total force =     0.019757     Total SCF correction =     0.000099

     Writing output data file /home/simplogic86/Work/QE1/Environ/tests/../..//tempdir/pwscf.save/
 
     init_run     :      2.75s CPU      3.01s WALL (       1 calls)
     electrons    :     73.55s CPU     78.23s WALL (       1 calls)
     forces       :      0.35s CPU      0.39s WALL (       1 calls)

     Called by init_run:
     wfcinit      :      0.03s CPU      0.03s WALL (       1 calls)
     potinit      :      0.89s CPU      0.96s WALL (       1 calls)
     hinit0       :      1.41s CPU      1.44s WALL (       1 calls)

     Called by electrons:
     c_bands      :      0.57s CPU      0.58s WALL (      12 calls)
     sum_band     :      2.02s CPU      2.63s WALL (      12 calls)
     v_of_rho     :      4.30s CPU      4.91s WALL (      13 calls)
     newd         :      1.39s CPU      1.76s WALL (      13 calls)
     mix_rho      :      0.62s CPU      0.62s WALL (      12 calls)

     Called by c_bands:
     init_us_2    :      0.03s CPU      0.03s WALL (      25 calls)
     regterg      :      0.53s CPU      0.53s WALL (      12 calls)

     Called by *egterg:
     rdiaghg      :      0.00s CPU      0.00s WALL (      34 calls)
     h_psi        :      0.52s CPU      0.52s WALL (      35 calls)
     s_psi        :      0.01s CPU      0.01s WALL (      35 calls)
     g_psi        :      0.00s CPU      0.00s WALL (      22 calls)

     Called by h_psi:
     h_psi:calbec :      0.01s CPU      0.01s WALL (      35 calls)
     vloc_psi     :      0.50s CPU      0.51s WALL (      35 calls)
     add_vuspsi   :      0.01s CPU      0.01s WALL (      35 calls)

     General routines
     calbec       :      0.01s CPU      0.01s WALL (      51 calls)
     fft          :      2.08s CPU      2.12s WALL (     143 calls)
     ffts         :      0.07s CPU      0.07s WALL (      25 calls)
     fftw         :      0.43s CPU      0.43s WALL (     158 calls)
     interpolate  :      0.26s CPU      0.30s WALL (      13 calls)
 
     Parallel routines
 
     Environ routines
 
     PWSCF        :   1m16.70s CPU   1m21.69s WALL

 
   This run was terminated on:  20:50:54   1Oct2021            

=------------------------------------------------------------------------------=
   JOB DONE.
=------------------------------------------------------------------------------=

%%%% CELL %%%%%%%%%%%%%%%%%%%%%%%%%%%%%%%%%%%%%%%%%%%%%%%%%%%%%%%%%%%%%%%%%%%%%%

 cell label                 = system         

 cell volume                =    8000.000000

%%%% IONS %%%%%%%%%%%%%%%%%%%%%%%%%%%%%%%%%%%%%%%%%%%%%%%%%%%%%%%%%%%%%%%%%%%%%%

 total charge               =     -8.0000000
 center of charge           =     11.8437500    11.7725000    11.5000000
 dipole                     =      0.0000000     0.0000000     0.0000000
 quadrupole (pc)            =     -4.2453875    -2.0049500     0.0000000
 quadrupole (gauss)         =     -5.2453875    -3.0049500    -1.0000000

   i | type | coordinates
 -----------------------------------------------------------------------
   1 |    2 |                     11.7900000    12.0500000    11.5000000
   2 |    1 |                     13.4500000    11.2200000    11.5000000
   3 |    1 |                     10.5600000    10.6600000    11.5000000

%%%% SYSTEM %%%%%%%%%%%%%%%%%%%%%%%%%%%%%%%%%%%%%%%%%%%%%%%%%%%%%%%%%%%%%%%%%%%%

 system is built from all present ionic types

 system defined dimension   =              0
 system defined axis        =              3

 system center              =     11.8437500    11.7725000    11.5000000
 system width               =      1.6987261

%%%% IONS %%%%%%%%%%%%%%%%%%%%%%%%%%%%%%%%%%%%%%%%%%%%%%%%%%%%%%%%%%%%%%%%%%%%%%

 total charge               =     -8.0000000
 center of charge           =     11.8437500    11.7725000    11.5000000
 dipole                     =      0.0000000     0.0000000     0.0000000
 quadrupole (pc)            =     -4.2453875    -2.0049500     0.0000000
 quadrupole (gauss)         =     -5.2453875    -3.0049500    -1.0000000

   i | type | coordinates
 -----------------------------------------------------------------------
   1 |    2 |                     11.7900000    12.0500000    11.5000000
   2 |    1 |                     13.4500000    11.2200000    11.5000000
   3 |    1 |                     10.5600000    10.6600000    11.5000000

%%%% SYSTEM %%%%%%%%%%%%%%%%%%%%%%%%%%%%%%%%%%%%%%%%%%%%%%%%%%%%%%%%%%%%%%%%%%%%

 system is built from all present ionic types

 system defined dimension   =              0
 system defined axis        =              3

 system center              =     11.8437500    11.7725000    11.5000000
 system width               =      1.6987261

%%%% CHARGES %%%%%%%%%%%%%%%%%%%%%%%%%%%%%%%%%%%%%%%%%%%%%%%%%%%%%%%%%%%%%%%%%%%

 total number of charges    =              4

 total charge               =     -8.0000000

%%%% CHARGES %%%%%%%%%%%%%%%%%%%%%%%%%%%%%%%%%%%%%%%%%%%%%%%%%%%%%%%%%%%%%%%%%%%

 total number of charges    =              4

 total charge               =     -8.0000000

%%%% CELL %%%%%%%%%%%%%%%%%%%%%%%%%%%%%%%%%%%%%%%%%%%%%%%%%%%%%%%%%%%%%%%%%%%%%%

 cell label                 = system         

 cell volume                =    8000.000000

%%%% DIELECTRIC %%%%%%%%%%%%%%%%%%%%%%%%%%%%%%%%%%%%%%%%%%%%%%%%%%%%%%%%%%%%%%%%%

 dielectric build in the presence of dielectric regions:
 environment bulk permitt.  =      1.0000000
 number of dielec. regions  =              1

 dielectric flags:
 need gradient              =              F
 need factor depend. sqrt   =              T

 total dielectric charge    =      0.0000000

%%%% ELECTRONS %%%%%%%%%%%%%%%%%%%%%%%%%%%%%%%%%%%%%%%%%%%%%%%%%%%%%%%%%%%%%%%%%

 number of electrons        =              8

 total electronic charge    =      8.0000000

%%%% ELECTRONS %%%%%%%%%%%%%%%%%%%%%%%%%%%%%%%%%%%%%%%%%%%%%%%%%%%%%%%%%%%%%%%%%

 number of electrons        =              8

 total electronic charge    =      8.0000000

%%%% CHARGES %%%%%%%%%%%%%%%%%%%%%%%%%%%%%%%%%%%%%%%%%%%%%%%%%%%%%%%%%%%%%%%%%%%

 total number of charges    =             11

 total charge               =     -0.0000000

%%%% CHARGES %%%%%%%%%%%%%%%%%%%%%%%%%%%%%%%%%%%%%%%%%%%%%%%%%%%%%%%%%%%%%%%%%%%

 total number of charges    =             11

 total charge               =     -0.0000000

%%%% BOUNDARY %%%%%%%%%%%%%%%%%%%%%%%%%%%%%%%%%%%%%%%%%%%%%%%%%%%%%%%%%%%%%%%%%%

 boundary label             = solvent             
 boundary mode              = electronic          

 boundary is built as a type-1 function of a smooth density

 using the optimal SCCS function:
 rhomax                     =      0.0050000
 rhomin                     =      0.0001000

 volume of the QM region    =    479.9702285

 surface of the QM region   =    281.4538971

%%%% DENSITY %%%%%%%%%%%%%%%%%%%%%%%%%%%%%%%%%%%%%%%%%%%%%%%%%%%%%%%%%%%%%%%%%%%

 density label              = dvtot                                             

 integral of density        =    0.000000000    

%%%% DENSITY %%%%%%%%%%%%%%%%%%%%%%%%%%%%%%%%%%%%%%%%%%%%%%%%%%%%%%%%%%%%%%%%%%%

 density label              = vreference                                        

 integral of density        =    0.000000000    

%%%% DENSITY %%%%%%%%%%%%%%%%%%%%%%%%%%%%%%%%%%%%%%%%%%%%%%%%%%%%%%%%%%%%%%%%%%%

 density label              = velectrostatic                                    

 integral of density        =    0.000000000    

%%%% CHARGES %%%%%%%%%%%%%%%%%%%%%%%%%%%%%%%%%%%%%%%%%%%%%%%%%%%%%%%%%%%%%%%%%%%

 total number of charges    =             11

 total charge               =     -0.0000000

%%%% DENSITY %%%%%%%%%%%%%%%%%%%%%%%%%%%%%%%%%%%%%%%%%%%%%%%%%%%%%%%%%%%%%%%%%%%

 density label              = vsoftcavity                                       

 integral of density        =    0.000000000    

%%%% ELECTRONS %%%%%%%%%%%%%%%%%%%%%%%%%%%%%%%%%%%%%%%%%%%%%%%%%%%%%%%%%%%%%%%%%

 number of electrons        =              8

 total electronic charge    =      8.0000000

%%%% ELECTRONS %%%%%%%%%%%%%%%%%%%%%%%%%%%%%%%%%%%%%%%%%%%%%%%%%%%%%%%%%%%%%%%%%

 number of electrons        =              8

 total electronic charge    =      8.0000000

%%%% CHARGES %%%%%%%%%%%%%%%%%%%%%%%%%%%%%%%%%%%%%%%%%%%%%%%%%%%%%%%%%%%%%%%%%%%

 total number of charges    =             11

 total charge               =      0.0000000

%%%% CHARGES %%%%%%%%%%%%%%%%%%%%%%%%%%%%%%%%%%%%%%%%%%%%%%%%%%%%%%%%%%%%%%%%%%%

 total number of charges    =             11

 total charge               =      0.0000000

%%%% BOUNDARY %%%%%%%%%%%%%%%%%%%%%%%%%%%%%%%%%%%%%%%%%%%%%%%%%%%%%%%%%%%%%%%%%%

 boundary label             = solvent             
 boundary mode              = electronic          

 boundary is built as a type-1 function of a smooth density

 using the optimal SCCS function:
 rhomax                     =      0.0050000
 rhomin                     =      0.0001000

 volume of the QM region    =    345.1756690

 surface of the QM region   =    230.1361651

%%%% DENSITY %%%%%%%%%%%%%%%%%%%%%%%%%%%%%%%%%%%%%%%%%%%%%%%%%%%%%%%%%%%%%%%%%%%

 density label              = vreference                                        

 integral of density        =  -0.2863881971E-12

%%%% COMPUTE ELECTROSTATIC POTENTIAL %%%%%%%%%%%%%%%%%%%%%%%%%%%%%%%%%%%%%%%%%%%

   i |      alpha     |       pAp      |      rzold     |    delta_qm    |    delta_en    |       tol
 ---------------------------------------------------------------------------------------------------------
   1 |   0.974722E+00 |   0.293839E+02 |   0.286411E+02 |   0.702008E-02 |   0.851585E+02 |   0.100000E-12
   2 |   0.135817E+00 |   0.300993E+02 |   0.408800E+01 |   0.198707E-02 |   0.682290E+01 |   0.100000E-12
   3 |   0.222170E+00 |   0.809359E+00 |   0.179816E+00 |   0.512238E-03 |   0.453407E+00 |   0.100000E-12
   4 |   0.174559E+00 |   0.427653E-01 |   0.746507E-02 |   0.279502E-03 |   0.134994E+00 |   0.100000E-12
   5 |   0.289590E+00 |   0.486890E-02 |   0.140998E-02 |   0.200855E-03 |   0.697123E-01 |   0.100000E-12
   6 |   0.399690E+00 |   0.102095E-02 |   0.408064E-03 |   0.887283E-04 |   0.136040E-01 |   0.100000E-12
   7 |   0.344016E+00 |   0.214428E-03 |   0.737668E-04 |   0.863551E-04 |   0.128860E-01 |   0.100000E-12
   8 |   0.357445E+00 |   0.730151E-04 |   0.260989E-04 |   0.753834E-04 |   0.981963E-02 |   0.100000E-12
   9 |   0.172430E+01 |   0.118432E-04 |   0.204213E-04 |   0.588107E-04 |   0.597663E-02 |   0.100000E-12
  10 |   0.233994E+00 |   0.193577E-03 |   0.452957E-04 |   0.519243E-04 |   0.465892E-02 |   0.100000E-12
  11 |   0.361770E+00 |   0.593092E-04 |   0.214563E-04 |   0.411482E-04 |   0.292580E-02 |   0.100000E-12
  12 |   0.339013E+00 |   0.244773E-04 |   0.829812E-05 |   0.301888E-04 |   0.157484E-02 |   0.100000E-12
  13 |   0.588519E+00 |   0.490820E-05 |   0.288856E-05 |   0.194484E-04 |   0.653602E-03 |   0.100000E-12
  14 |   0.451555E+00 |   0.557748E-05 |   0.251854E-05 |   0.138540E-04 |   0.331660E-03 |   0.100000E-12
  15 |   0.657619E+00 |   0.140811E-05 |   0.926003E-06 |   0.900081E-05 |   0.139993E-03 |   0.100000E-12
  16 |   0.314511E+00 |   0.268025E-05 |   0.842969E-06 |   0.419277E-05 |   0.303771E-04 |   0.100000E-12
  17 |   0.338131E+00 |   0.725466E-06 |   0.245303E-06 |   0.273677E-05 |   0.129425E-04 |   0.100000E-12
  18 |   0.447834E+00 |   0.870708E-07 |   0.389933E-07 |   0.211907E-05 |   0.775951E-05 |   0.100000E-12
  19 |   0.360988E+00 |   0.333876E-07 |   0.120525E-07 |   0.170495E-05 |   0.502306E-05 |   0.100000E-12
  20 |   0.487825E+00 |   0.332305E-07 |   0.162107E-07 |   0.870234E-06 |   0.130863E-05 |   0.100000E-12
  21 |   0.490900E+00 |   0.115071E-07 |   0.564884E-08 |   0.533646E-06 |   0.492096E-06 |   0.100000E-12
  22 |   0.404091E+00 |   0.497432E-08 |   0.201008E-08 |   0.339721E-06 |   0.199429E-06 |   0.100000E-12
  23 |   0.581598E+00 |   0.605927E-09 |   0.352406E-09 |   0.200655E-06 |   0.695737E-07 |   0.100000E-12
  24 |   0.776196E+00 |   0.162999E-09 |   0.126519E-09 |   0.138313E-06 |   0.330573E-07 |   0.100000E-12
  25 |   0.683535E+00 |   0.773888E-10 |   0.528980E-10 |   0.805162E-07 |   0.112024E-07 |   0.100000E-12
  26 |   0.519629E+00 |   0.621793E-10 |   0.323102E-10 |   0.325199E-07 |   0.182744E-08 |   0.100000E-12
  27 |   0.457680E+00 |   0.728203E-11 |   0.333283E-11 |   0.202817E-07 |   0.710809E-09 |   0.100000E-12
  28 |   0.485749E+00 |   0.278880E-11 |   0.135466E-11 |   0.108508E-07 |   0.203454E-09 |   0.100000E-12
  29 |   0.443672E+00 |   0.100045E-11 |   0.443870E-12 |   0.793830E-08 |   0.108893E-09 |   0.100000E-12
  30 |   0.498574E+00 |   0.535076E-12 |   0.266775E-12 |   0.569607E-08 |   0.560654E-10 |   0.100000E-12
  31 |   0.475164E+00 |   0.289510E-12 |   0.137564E-12 |   0.344183E-08 |   0.204702E-10 |   0.100000E-12
  32 |   0.536159E+00 |   0.661028E-13 |   0.354416E-13 |   0.182397E-08 |   0.574880E-11 |   0.100000E-12
  33 |   0.504987E+00 |   0.165462E-13 |   0.835560E-14 |   0.975014E-09 |   0.164273E-11 |   0.100000E-12
  34 |   0.487289E+00 |   0.491424E-14 |   0.239465E-14 |   0.564593E-09 |   0.550825E-12 |   0.100000E-12
  35 |   0.215635E+00 |   0.968619E-14 |   0.208868E-14 |   0.430810E-09 |   0.320713E-12 |   0.100000E-12
  36 |   0.562822E+00 |   0.988135E-15 |   0.556144E-15 |   0.246360E-09 |   0.104878E-12 |   0.100000E-12
  37 |   0.241205E+00 |   0.154766E-14 |   0.373304E-15 |   0.191141E-09 |   0.631325E-13 |   0.100000E-12

 Charges are converged, EXIT

%%%% DENSITY %%%%%%%%%%%%%%%%%%%%%%%%%%%%%%%%%%%%%%%%%%%%%%%%%%%%%%%%%%%%%%%%%%%

 density label              = velectrostatic                                    

 integral of density        =  -0.2684272557E-13

%%%% CHARGES %%%%%%%%%%%%%%%%%%%%%%%%%%%%%%%%%%%%%%%%%%%%%%%%%%%%%%%%%%%%%%%%%%%

 total number of charges    =             11

 total charge               =      0.0000000

%%%% DENSITY %%%%%%%%%%%%%%%%%%%%%%%%%%%%%%%%%%%%%%%%%%%%%%%%%%%%%%%%%%%%%%%%%%%

 density label              = vsoftcavity                                       

 integral of density        =    22.97296683    

%%%% DENSITY %%%%%%%%%%%%%%%%%%%%%%%%%%%%%%%%%%%%%%%%%%%%%%%%%%%%%%%%%%%%%%%%%%%

 density label              = dvtot                                             

 integral of density        =    22.97296683    

%%%% ELECTRONS %%%%%%%%%%%%%%%%%%%%%%%%%%%%%%%%%%%%%%%%%%%%%%%%%%%%%%%%%%%%%%%%%

 number of electrons        =              8

 total electronic charge    =      8.0000000

%%%% ELECTRONS %%%%%%%%%%%%%%%%%%%%%%%%%%%%%%%%%%%%%%%%%%%%%%%%%%%%%%%%%%%%%%%%%

 number of electrons        =              8

 total electronic charge    =      8.0000000

%%%% CHARGES %%%%%%%%%%%%%%%%%%%%%%%%%%%%%%%%%%%%%%%%%%%%%%%%%%%%%%%%%%%%%%%%%%%

 total number of charges    =             11

 total charge               =      0.0000000

%%%% CHARGES %%%%%%%%%%%%%%%%%%%%%%%%%%%%%%%%%%%%%%%%%%%%%%%%%%%%%%%%%%%%%%%%%%%

 total number of charges    =             11

 total charge               =      0.0000000

%%%% BOUNDARY %%%%%%%%%%%%%%%%%%%%%%%%%%%%%%%%%%%%%%%%%%%%%%%%%%%%%%%%%%%%%%%%%%

 boundary label             = solvent             
 boundary mode              = electronic          

 boundary is built as a type-1 function of a smooth density

 using the optimal SCCS function:
 rhomax                     =      0.0050000
 rhomin                     =      0.0001000

 volume of the QM region    =    246.5676294

 surface of the QM region   =    188.3821484

%%%% DENSITY %%%%%%%%%%%%%%%%%%%%%%%%%%%%%%%%%%%%%%%%%%%%%%%%%%%%%%%%%%%%%%%%%%%

 density label              = vreference                                        

 integral of density        =  -0.6065929652E-13

%%%% COMPUTE ELECTROSTATIC POTENTIAL %%%%%%%%%%%%%%%%%%%%%%%%%%%%%%%%%%%%%%%%%%%

 Warning: Bad guess with residual norm =   0.142249E+03, reset to no guess

   i |      alpha     |       pAp      |      rzold     |    delta_qm    |    delta_en    |       tol
 ---------------------------------------------------------------------------------------------------------
   1 |   0.979549E+00 |   0.283918E+02 |   0.278111E+02 |   0.892508E-02 |   0.137648E+03 |   0.100000E-12
   2 |   0.118738E+00 |   0.312222E+02 |   0.370726E+01 |   0.238029E-02 |   0.979045E+01 |   0.100000E-12
   3 |   0.190419E+00 |   0.100265E+01 |   0.190923E+00 |   0.603085E-03 |   0.628494E+00 |   0.100000E-12
   4 |   0.150846E+00 |   0.718986E-01 |   0.108456E-01 |   0.441980E-03 |   0.337558E+00 |   0.100000E-12
   5 |   0.303279E+00 |   0.539676E-02 |   0.163672E-02 |   0.255583E-03 |   0.112877E+00 |   0.100000E-12
   6 |   0.375441E+00 |   0.131390E-02 |   0.493290E-03 |   0.182308E-03 |   0.574324E-01 |   0.100000E-12
   7 |   0.301616E+00 |   0.773323E-03 |   0.233247E-03 |   0.186117E-03 |   0.598570E-01 |   0.100000E-12
   8 |   0.169562E+01 |   0.368673E-04 |   0.625130E-04 |   0.163577E-03 |   0.462366E-01 |   0.100000E-12
   9 |   0.766620E+00 |   0.251353E-03 |   0.192693E-03 |   0.133777E-03 |   0.309250E-01 |   0.100000E-12
  10 |   0.287347E+00 |   0.509785E-03 |   0.146485E-03 |   0.108047E-03 |   0.201728E-01 |   0.100000E-12
  11 |   0.385702E+00 |   0.784336E-04 |   0.302520E-04 |   0.825955E-04 |   0.117885E-01 |   0.100000E-12
  12 |   0.296645E+00 |   0.949748E-04 |   0.281738E-04 |   0.648383E-04 |   0.726453E-02 |   0.100000E-12
  13 |   0.462031E+00 |   0.365606E-04 |   0.168921E-04 |   0.600287E-04 |   0.622676E-02 |   0.100000E-12
  14 |   0.915883E+00 |   0.156813E-04 |   0.143623E-04 |   0.602008E-04 |   0.626251E-02 |   0.100000E-12
  15 |   0.429973E+00 |   0.406520E-04 |   0.174793E-04 |   0.520481E-04 |   0.468117E-02 |   0.100000E-12
  16 |   0.578883E+00 |   0.297381E-04 |   0.172149E-04 |   0.396299E-04 |   0.271387E-02 |   0.100000E-12
  17 |   0.468833E+00 |   0.895757E-05 |   0.419960E-05 |   0.371485E-04 |   0.238466E-02 |   0.100000E-12
  18 |   0.810147E+00 |   0.561263E-05 |   0.454705E-05 |   0.382416E-04 |   0.252707E-02 |   0.100000E-12
  19 |   0.395065E+00 |   0.348378E-04 |   0.137632E-04 |   0.417014E-04 |   0.300500E-02 |   0.100000E-12
  20 |   0.507696E+00 |   0.220266E-04 |   0.111828E-04 |   0.340753E-04 |   0.200642E-02 |   0.100000E-12
  21 |   0.470421E+00 |   0.873199E-05 |   0.410771E-05 |   0.235709E-04 |   0.960058E-03 |   0.100000E-12
  22 |   0.690653E+00 |   0.134752E-05 |   0.930672E-06 |   0.144654E-04 |   0.361583E-03 |   0.100000E-12
  23 |   0.475791E+00 |   0.128173E-05 |   0.609835E-06 |   0.106147E-04 |   0.194696E-03 |   0.100000E-12
  24 |   0.693238E+00 |   0.418766E-06 |   0.290305E-06 |   0.761965E-05 |   0.100326E-03 |   0.100000E-12
  25 |   0.617361E+00 |   0.189520E-06 |   0.117002E-06 |   0.379179E-05 |   0.248447E-04 |   0.100000E-12
  26 |   0.353653E+00 |   0.119723E-06 |   0.423406E-07 |   0.215224E-05 |   0.800433E-05 |   0.100000E-12
  27 |   0.509977E+00 |   0.154224E-07 |   0.786508E-08 |   0.106514E-05 |   0.196045E-05 |   0.100000E-12
  28 |   0.492836E+00 |   0.449399E-08 |   0.221480E-08 |   0.532228E-06 |   0.489484E-06 |   0.100000E-12
  29 |   0.166494E+00 |   0.811852E-08 |   0.135168E-08 |   0.377736E-06 |   0.246559E-06 |   0.100000E-12
  30 |   0.396361E+00 |   0.104324E-08 |   0.413499E-09 |   0.228268E-06 |   0.900396E-07 |   0.100000E-12
  31 |   0.572120E+00 |   0.258574E-09 |   0.147935E-09 |   0.176802E-06 |   0.540156E-07 |   0.100000E-12
  32 |   0.369746E+00 |   0.319080E-09 |   0.117979E-09 |   0.169063E-06 |   0.493901E-07 |   0.100000E-12
  33 |   0.104348E+01 |   0.413687E-10 |   0.431673E-10 |   0.951529E-07 |   0.156454E-07 |   0.100000E-12
  34 |   0.476732E+00 |   0.474553E-10 |   0.226235E-10 |   0.605752E-07 |   0.634065E-08 |   0.100000E-12
  35 |   0.517843E+00 |   0.171503E-10 |   0.888115E-11 |   0.354877E-07 |   0.217621E-08 |   0.100000E-12
  36 |   0.488479E+00 |   0.579971E-11 |   0.283304E-11 |   0.253159E-07 |   0.110747E-08 |   0.100000E-12
  37 |   0.228227E+00 |   0.694502E-11 |   0.158504E-11 |   0.185187E-07 |   0.592605E-09 |   0.100000E-12
  38 |   0.465960E+00 |   0.190969E-11 |   0.889840E-12 |   0.648957E-08 |   0.727738E-10 |   0.100000E-12
  39 |   0.360772E+00 |   0.540597E-12 |   0.195032E-12 |   0.380651E-08 |   0.250379E-10 |   0.100000E-12
  40 |   0.308491E+00 |   0.230695E-12 |   0.711675E-13 |   0.242118E-08 |   0.101297E-10 |   0.100000E-12
  41 |   0.719437E+00 |   0.119328E-13 |   0.858488E-14 |   0.120609E-08 |   0.251363E-11 |   0.100000E-12
  42 |   0.592975E+00 |   0.647521E-14 |   0.383964E-14 |   0.806125E-09 |   0.112292E-11 |   0.100000E-12
  43 |   0.333931E+00 |   0.740139E-14 |   0.247155E-14 |   0.752650E-09 |   0.978881E-12 |   0.100000E-12
  44 |   0.298094E+00 |   0.834154E-14 |   0.248657E-14 |   0.572380E-09 |   0.566126E-12 |   0.100000E-12
  45 |   0.727112E+00 |   0.798680E-15 |   0.580730E-15 |   0.394775E-09 |   0.269304E-12 |   0.100000E-12
  46 |   0.534336E+00 |   0.910647E-15 |   0.486591E-15 |   0.368071E-09 |   0.234103E-12 |   0.100000E-12
  47 |   0.988261E+00 |   0.347547E-15 |   0.343467E-15 |   0.391787E-09 |   0.265243E-12 |   0.100000E-12
  48 |   0.910643E+00 |   0.311137E-15 |   0.283335E-15 |   0.311403E-09 |   0.167567E-12 |   0.100000E-12
  49 |   0.503094E+00 |   0.302357E-15 |   0.152114E-15 |   0.196990E-09 |   0.670554E-13 |   0.100000E-12

 Charges are converged, EXIT

%%%% DENSITY %%%%%%%%%%%%%%%%%%%%%%%%%%%%%%%%%%%%%%%%%%%%%%%%%%%%%%%%%%%%%%%%%%%

 density label              = velectrostatic                                    

 integral of density        =  -0.9118631776E-13

%%%% CHARGES %%%%%%%%%%%%%%%%%%%%%%%%%%%%%%%%%%%%%%%%%%%%%%%%%%%%%%%%%%%%%%%%%%%

 total number of charges    =             11

 total charge               =      0.0000000

%%%% DENSITY %%%%%%%%%%%%%%%%%%%%%%%%%%%%%%%%%%%%%%%%%%%%%%%%%%%%%%%%%%%%%%%%%%%

 density label              = vsoftcavity                                       

 integral of density        =    16.17366418    

%%%% DENSITY %%%%%%%%%%%%%%%%%%%%%%%%%%%%%%%%%%%%%%%%%%%%%%%%%%%%%%%%%%%%%%%%%%%

 density label              = dvtot                                             

 integral of density        =    16.17366418    

%%%% ELECTRONS %%%%%%%%%%%%%%%%%%%%%%%%%%%%%%%%%%%%%%%%%%%%%%%%%%%%%%%%%%%%%%%%%

 number of electrons        =              8

 total electronic charge    =      8.0000000

%%%% ELECTRONS %%%%%%%%%%%%%%%%%%%%%%%%%%%%%%%%%%%%%%%%%%%%%%%%%%%%%%%%%%%%%%%%%

 number of electrons        =              8

 total electronic charge    =      8.0000000

%%%% CHARGES %%%%%%%%%%%%%%%%%%%%%%%%%%%%%%%%%%%%%%%%%%%%%%%%%%%%%%%%%%%%%%%%%%%

 total number of charges    =             11

 total charge               =     -0.0000000

%%%% CHARGES %%%%%%%%%%%%%%%%%%%%%%%%%%%%%%%%%%%%%%%%%%%%%%%%%%%%%%%%%%%%%%%%%%%

 total number of charges    =             11

 total charge               =     -0.0000000

%%%% BOUNDARY %%%%%%%%%%%%%%%%%%%%%%%%%%%%%%%%%%%%%%%%%%%%%%%%%%%%%%%%%%%%%%%%%%

 boundary label             = solvent             
 boundary mode              = electronic          

 boundary is built as a type-1 function of a smooth density

 using the optimal SCCS function:
 rhomax                     =      0.0050000
 rhomin                     =      0.0001000

 volume of the QM region    =    237.5987509

 surface of the QM region   =    184.5358429

%%%% DENSITY %%%%%%%%%%%%%%%%%%%%%%%%%%%%%%%%%%%%%%%%%%%%%%%%%%%%%%%%%%%%%%%%%%%

 density label              = vreference                                        

 integral of density        =   0.1649380221E-12

%%%% COMPUTE ELECTROSTATIC POTENTIAL %%%%%%%%%%%%%%%%%%%%%%%%%%%%%%%%%%%%%%%%%%%

 Warning: Bad guess with residual norm =   0.210898E+03, reset to no guess

   i |      alpha     |       pAp      |      rzold     |    delta_qm    |    delta_en    |       tol
 ---------------------------------------------------------------------------------------------------------
   1 |   0.984805E+00 |   0.292522E+02 |   0.288077E+02 |   0.108969E-01 |   0.205187E+03 |   0.100000E-12
   2 |   0.114090E+00 |   0.259948E+02 |   0.296575E+01 |   0.261211E-02 |   0.117904E+02 |   0.100000E-12
   3 |   0.162636E+00 |   0.111915E+01 |   0.182014E+00 |   0.761125E-03 |   0.100105E+01 |   0.100000E-12
   4 |   0.134929E+00 |   0.121600E+00 |   0.164074E-01 |   0.523654E-03 |   0.473841E+00 |   0.100000E-12
   5 |   0.291142E+00 |   0.515538E-02 |   0.150095E-02 |   0.322079E-03 |   0.179254E+00 |   0.100000E-12
   6 |   0.400903E+00 |   0.133821E-02 |   0.536492E-03 |   0.250348E-03 |   0.108301E+00 |   0.100000E-12
   7 |   0.318900E+00 |   0.791508E-03 |   0.252412E-03 |   0.273537E-03 |   0.129294E+00 |   0.100000E-12
   8 |   0.184651E+01 |   0.492835E-04 |   0.910025E-04 |   0.243103E-03 |   0.102124E+00 |   0.100000E-12
   9 |   0.698162E+00 |   0.478835E-03 |   0.334305E-03 |   0.221060E-03 |   0.844430E-01 |   0.100000E-12
  10 |   0.274914E+00 |   0.742353E-03 |   0.204083E-03 |   0.190701E-03 |   0.628417E-01 |   0.100000E-12
  11 |   0.274266E+00 |   0.255866E-03 |   0.701755E-04 |   0.155832E-03 |   0.419619E-01 |   0.100000E-12
  12 |   0.358954E+00 |   0.143993E-03 |   0.516867E-04 |   0.117078E-03 |   0.236860E-01 |   0.100000E-12
  13 |   0.617498E+00 |   0.490337E-04 |   0.302782E-04 |   0.100739E-03 |   0.175363E-01 |   0.100000E-12
  14 |   0.591641E+00 |   0.611683E-04 |   0.361897E-04 |   0.112698E-03 |   0.219469E-01 |   0.100000E-12
  15 |   0.573132E+00 |   0.551130E-04 |   0.315870E-04 |   0.822441E-04 |   0.116883E-01 |   0.100000E-12
  16 |   0.423493E+00 |   0.843582E-04 |   0.357251E-04 |   0.665399E-04 |   0.765081E-02 |   0.100000E-12
  17 |   0.311369E+00 |   0.398199E-04 |   0.123987E-04 |   0.661495E-04 |   0.756131E-02 |   0.100000E-12
  18 |   0.454168E+00 |   0.174606E-04 |   0.793004E-05 |   0.618422E-04 |   0.660867E-02 |   0.100000E-12
  19 |   0.905239E+00 |   0.176072E-04 |   0.159387E-04 |   0.824934E-04 |   0.117593E-01 |   0.100000E-12
  20 |   0.760287E+00 |   0.314432E-04 |   0.239059E-04 |   0.821561E-04 |   0.116634E-01 |   0.100000E-12
  21 |   0.508813E+00 |   0.349834E-04 |   0.178000E-04 |   0.694879E-04 |   0.834378E-02 |   0.100000E-12
  22 |   0.736534E+00 |   0.831378E-05 |   0.612338E-05 |   0.418959E-04 |   0.303310E-02 |   0.100000E-12
  23 |   0.736610E+00 |   0.469176E-05 |   0.345600E-05 |   0.338074E-04 |   0.197500E-02 |   0.100000E-12
  24 |   0.528519E+00 |   0.427262E-05 |   0.225816E-05 |   0.245257E-04 |   0.103941E-02 |   0.100000E-12
  25 |   0.451265E+00 |   0.313162E-05 |   0.141319E-05 |   0.149350E-04 |   0.385437E-03 |   0.100000E-12
  26 |   0.408101E+00 |   0.728244E-06 |   0.297197E-06 |   0.888050E-05 |   0.136276E-03 |   0.100000E-12
  27 |   0.221506E+00 |   0.611874E-06 |   0.135534E-06 |   0.695791E-05 |   0.836568E-04 |   0.100000E-12
  28 |   0.231145E+00 |   0.399761E-06 |   0.924027E-07 |   0.405929E-05 |   0.284737E-04 |   0.100000E-12
  29 |   0.496615E+00 |   0.407946E-07 |   0.202592E-07 |   0.201132E-05 |   0.699045E-05 |   0.100000E-12
  30 |   0.515140E+00 |   0.102337E-07 |   0.527180E-08 |   0.935469E-06 |   0.151218E-05 |   0.100000E-12
  31 |   0.499613E+00 |   0.341282E-08 |   0.170509E-08 |   0.583389E-06 |   0.588112E-06 |   0.100000E-12
  32 |   0.407253E+00 |   0.167173E-08 |   0.680816E-09 |   0.486160E-06 |   0.408416E-06 |   0.100000E-12
  33 |   0.544148E+00 |   0.851869E-09 |   0.463543E-09 |   0.364206E-06 |   0.229213E-06 |   0.100000E-12
  34 |   0.805618E+00 |   0.185111E-09 |   0.149129E-09 |   0.192053E-06 |   0.637365E-07 |   0.100000E-12
  35 |   0.419767E+00 |   0.222653E-09 |   0.934624E-10 |   0.157323E-06 |   0.427691E-07 |   0.100000E-12
  36 |   0.222844E+00 |   0.313143E-09 |   0.697822E-10 |   0.138467E-06 |   0.331314E-07 |   0.100000E-12
  37 |   0.492884E+00 |   0.674180E-10 |   0.332293E-10 |   0.107953E-06 |   0.201377E-07 |   0.100000E-12
  38 |   0.852170E+00 |   0.164545E-10 |   0.140221E-10 |   0.422052E-07 |   0.307805E-08 |   0.100000E-12
  39 |   0.432635E+00 |   0.959779E-11 |   0.415234E-11 |   0.270225E-07 |   0.126182E-08 |   0.100000E-12
  40 |   0.285343E+00 |   0.443911E-11 |   0.126667E-11 |   0.193964E-07 |   0.650108E-09 |   0.100000E-12
  41 |   0.358551E+00 |   0.100657E-11 |   0.360907E-12 |   0.107148E-07 |   0.198387E-09 |   0.100000E-12
  42 |   0.214599E+00 |   0.128718E-11 |   0.276228E-12 |   0.735723E-08 |   0.935345E-10 |   0.100000E-12
  43 |   0.512681E+00 |   0.164105E-12 |   0.841334E-13 |   0.478221E-08 |   0.395186E-10 |   0.100000E-12
  44 |   0.622732E+00 |   0.736298E-13 |   0.458516E-13 |   0.516555E-08 |   0.461080E-10 |   0.100000E-12
  45 |   0.823009E+00 |   0.415862E-13 |   0.342258E-13 |   0.524590E-08 |   0.475536E-10 |   0.100000E-12
  46 |   0.857103E+00 |   0.397780E-13 |   0.340938E-13 |   0.449650E-08 |   0.349375E-10 |   0.100000E-12
  47 |   0.522996E+00 |   0.727821E-13 |   0.380648E-13 |   0.353463E-08 |   0.215890E-10 |   0.100000E-12
  48 |   0.284539E+00 |   0.115601E-12 |   0.328930E-13 |   0.277208E-08 |   0.132787E-10 |   0.100000E-12
  49 |   0.290961E+00 |   0.787918E-13 |   0.229253E-13 |   0.193661E-08 |   0.648080E-11 |   0.100000E-12
  50 |   0.363241E+00 |   0.155843E-13 |   0.566087E-14 |   0.144166E-08 |   0.359146E-11 |   0.100000E-12
  51 |   0.168509E+00 |   0.260426E-13 |   0.438842E-14 |   0.106139E-08 |   0.194666E-11 |   0.100000E-12
  52 |   0.527902E+00 |   0.289523E-14 |   0.152840E-14 |   0.577598E-09 |   0.576495E-12 |   0.100000E-12
  53 |   0.743479E+00 |   0.494809E-15 |   0.367880E-15 |   0.286418E-09 |   0.141757E-12 |   0.100000E-12
  54 |   0.385972E+00 |   0.345408E-15 |   0.133318E-15 |   0.206128E-09 |   0.734206E-13 |   0.100000E-12

 Charges are converged, EXIT

%%%% DENSITY %%%%%%%%%%%%%%%%%%%%%%%%%%%%%%%%%%%%%%%%%%%%%%%%%%%%%%%%%%%%%%%%%%%

 density label              = velectrostatic                                    

 integral of density        =  -0.5822502974E-13

%%%% CHARGES %%%%%%%%%%%%%%%%%%%%%%%%%%%%%%%%%%%%%%%%%%%%%%%%%%%%%%%%%%%%%%%%%%%

 total number of charges    =             11

 total charge               =     -0.0000000

%%%% DENSITY %%%%%%%%%%%%%%%%%%%%%%%%%%%%%%%%%%%%%%%%%%%%%%%%%%%%%%%%%%%%%%%%%%%

 density label              = vsoftcavity                                       

 integral of density        =    11.70261768    

%%%% DENSITY %%%%%%%%%%%%%%%%%%%%%%%%%%%%%%%%%%%%%%%%%%%%%%%%%%%%%%%%%%%%%%%%%%%

 density label              = dvtot                                             

 integral of density        =    11.70261768    

%%%% ELECTRONS %%%%%%%%%%%%%%%%%%%%%%%%%%%%%%%%%%%%%%%%%%%%%%%%%%%%%%%%%%%%%%%%%

 number of electrons        =              8

 total electronic charge    =      8.0000000

%%%% ELECTRONS %%%%%%%%%%%%%%%%%%%%%%%%%%%%%%%%%%%%%%%%%%%%%%%%%%%%%%%%%%%%%%%%%

 number of electrons        =              8

 total electronic charge    =      8.0000000

%%%% CHARGES %%%%%%%%%%%%%%%%%%%%%%%%%%%%%%%%%%%%%%%%%%%%%%%%%%%%%%%%%%%%%%%%%%%

 total number of charges    =             11

 total charge               =     -0.0000000

%%%% CHARGES %%%%%%%%%%%%%%%%%%%%%%%%%%%%%%%%%%%%%%%%%%%%%%%%%%%%%%%%%%%%%%%%%%%

 total number of charges    =             11

 total charge               =     -0.0000000

%%%% BOUNDARY %%%%%%%%%%%%%%%%%%%%%%%%%%%%%%%%%%%%%%%%%%%%%%%%%%%%%%%%%%%%%%%%%%

 boundary label             = solvent             
 boundary mode              = electronic          

 boundary is built as a type-1 function of a smooth density

 using the optimal SCCS function:
 rhomax                     =      0.0050000
 rhomin                     =      0.0001000

 volume of the QM region    =    226.9897040

 surface of the QM region   =    179.2007255

%%%% DENSITY %%%%%%%%%%%%%%%%%%%%%%%%%%%%%%%%%%%%%%%%%%%%%%%%%%%%%%%%%%%%%%%%%%%

 density label              = vreference                                        

 integral of density        =   0.1340820459E-12

%%%% COMPUTE ELECTROSTATIC POTENTIAL %%%%%%%%%%%%%%%%%%%%%%%%%%%%%%%%%%%%%%%%%%%

 Warning: Bad guess with residual norm =   0.255428E+03, reset to no guess

   i |      alpha     |       pAp      |      rzold     |    delta_qm    |    delta_en    |       tol
 ---------------------------------------------------------------------------------------------------------
   1 |   0.984372E+00 |   0.289414E+02 |   0.284891E+02 |   0.119844E-01 |   0.248186E+03 |   0.100000E-12
   2 |   0.113923E+00 |   0.266205E+02 |   0.303269E+01 |   0.275921E-02 |   0.131557E+02 |   0.100000E-12
   3 |   0.147884E+00 |   0.133379E+01 |   0.197247E+00 |   0.875266E-03 |   0.132380E+01 |   0.100000E-12
   4 |   0.127910E+00 |   0.166436E+00 |   0.212889E-01 |   0.559495E-03 |   0.540924E+00 |   0.100000E-12
   5 |   0.287067E+00 |   0.563018E-02 |   0.161624E-02 |   0.352817E-03 |   0.215102E+00 |   0.100000E-12
   6 |   0.416045E+00 |   0.145909E-02 |   0.607045E-03 |   0.280977E-03 |   0.136423E+00 |   0.100000E-12
   7 |   0.315107E+00 |   0.839430E-03 |   0.264510E-03 |   0.304470E-03 |   0.160189E+00 |   0.100000E-12
   8 |   0.170051E+01 |   0.630548E-04 |   0.107226E-03 |   0.275503E-03 |   0.131159E+00 |   0.100000E-12
   9 |   0.711144E+00 |   0.541913E-03 |   0.385379E-03 |   0.245464E-03 |   0.104117E+00 |   0.100000E-12
  10 |   0.242704E+00 |   0.106105E-02 |   0.257521E-03 |   0.219553E-03 |   0.832959E-01 |   0.100000E-12
  11 |   0.244504E+00 |   0.475643E-03 |   0.116297E-03 |   0.186265E-03 |   0.599526E-01 |   0.100000E-12
  12 |   0.428308E+00 |   0.126201E-03 |   0.540530E-04 |   0.149025E-03 |   0.383762E-01 |   0.100000E-12
  13 |   0.657497E+00 |   0.616395E-04 |   0.405278E-04 |   0.123475E-03 |   0.263454E-01 |   0.100000E-12
  14 |   0.539560E+00 |   0.904236E-04 |   0.487889E-04 |   0.139913E-03 |   0.338266E-01 |   0.100000E-12
  15 |   0.646390E+00 |   0.632136E-04 |   0.408606E-04 |   0.103379E-03 |   0.184675E-01 |   0.100000E-12
  16 |   0.389385E+00 |   0.134993E-03 |   0.525643E-04 |   0.874650E-04 |   0.132194E-01 |   0.100000E-12
  17 |   0.281905E+00 |   0.652704E-04 |   0.184000E-04 |   0.857243E-04 |   0.126985E-01 |   0.100000E-12
  18 |   0.458331E+00 |   0.304581E-04 |   0.139599E-04 |   0.786794E-04 |   0.106971E-01 |   0.100000E-12
  19 |   0.811234E+00 |   0.271873E-04 |   0.220553E-04 |   0.101667E-03 |   0.178611E-01 |   0.100000E-12
  20 |   0.898121E+00 |   0.349118E-04 |   0.313550E-04 |   0.973325E-04 |   0.163704E-01 |   0.100000E-12
  21 |   0.508225E+00 |   0.430948E-04 |   0.219019E-04 |   0.875361E-04 |   0.132409E-01 |   0.100000E-12
  22 |   0.570043E+00 |   0.174965E-04 |   0.997375E-05 |   0.580302E-04 |   0.581904E-02 |   0.100000E-12
  23 |   0.662121E+00 |   0.815110E-05 |   0.539701E-05 |   0.396862E-04 |   0.272159E-02 |   0.100000E-12
  24 |   0.463748E+00 |   0.866210E-05 |   0.401703E-05 |   0.300393E-04 |   0.155928E-02 |   0.100000E-12
  25 |   0.480657E+00 |   0.479849E-05 |   0.230643E-05 |   0.188634E-04 |   0.614873E-03 |   0.100000E-12
  26 |   0.247049E+00 |   0.256305E-05 |   0.633198E-06 |   0.164248E-04 |   0.466172E-03 |   0.100000E-12
  27 |   0.222106E+00 |   0.289837E-05 |   0.643747E-06 |   0.100402E-04 |   0.174193E-03 |   0.100000E-12
  28 |   0.487702E+00 |   0.207377E-06 |   0.101138E-06 |   0.588984E-05 |   0.599447E-04 |   0.100000E-12
  29 |   0.456919E+00 |   0.856217E-07 |   0.391222E-07 |   0.293274E-05 |   0.148624E-04 |   0.100000E-12
  30 |   0.541159E+00 |   0.176138E-07 |   0.953183E-08 |   0.111942E-05 |   0.216535E-05 |   0.100000E-12
  31 |   0.553751E+00 |   0.319464E-08 |   0.176904E-08 |   0.637808E-06 |   0.702949E-06 |   0.100000E-12
  32 |   0.449661E+00 |   0.203908E-08 |   0.916896E-09 |   0.496632E-06 |   0.426200E-06 |   0.100000E-12
  33 |   0.386245E+00 |   0.129870E-08 |   0.501618E-09 |   0.418932E-06 |   0.303271E-06 |   0.100000E-12
  34 |   0.681538E+00 |   0.301257E-09 |   0.205318E-09 |   0.236957E-06 |   0.970249E-07 |   0.100000E-12
  35 |   0.382780E+00 |   0.305813E-09 |   0.117059E-09 |   0.170682E-06 |   0.503406E-07 |   0.100000E-12
  36 |   0.236725E+00 |   0.568821E-09 |   0.134654E-09 |   0.156410E-06 |   0.422738E-07 |   0.100000E-12
  37 |   0.586850E+00 |   0.495424E-10 |   0.290740E-10 |   0.127638E-06 |   0.281519E-07 |   0.100000E-12
  38 |   0.753693E+00 |   0.304826E-10 |   0.229745E-10 |   0.710736E-07 |   0.872892E-08 |   0.100000E-12
  39 |   0.554093E+00 |   0.185995E-10 |   0.103058E-10 |   0.477231E-07 |   0.393551E-08 |   0.100000E-12
  40 |   0.260685E+00 |   0.112822E-10 |   0.294110E-11 |   0.335318E-07 |   0.194293E-08 |   0.100000E-12
  41 |   0.344137E+00 |   0.767576E-11 |   0.264151E-11 |   0.277257E-07 |   0.132834E-08 |   0.100000E-12
  42 |   0.830054E+00 |   0.126182E-11 |   0.104738E-11 |   0.263634E-07 |   0.120101E-08 |   0.100000E-12
  43 |   0.610287E+00 |   0.268897E-11 |   0.164104E-11 |   0.367127E-07 |   0.232904E-08 |   0.100000E-12
  44 |   0.636836E+00 |   0.217790E-11 |   0.138697E-11 |   0.336454E-07 |   0.195612E-08 |   0.100000E-12
  45 |   0.513854E+00 |   0.190464E-11 |   0.978709E-12 |   0.223796E-07 |   0.865459E-09 |   0.100000E-12
  46 |   0.359691E+00 |   0.164950E-11 |   0.593311E-12 |   0.132417E-07 |   0.302994E-09 |   0.100000E-12
  47 |   0.203411E+00 |   0.148025E-11 |   0.301100E-12 |   0.983991E-08 |   0.167312E-09 |   0.100000E-12
  48 |   0.258853E+00 |   0.841009E-12 |   0.217698E-12 |   0.483512E-08 |   0.403978E-10 |   0.100000E-12
  49 |   0.430802E+00 |   0.750412E-13 |   0.323279E-13 |   0.242922E-08 |   0.101971E-10 |   0.100000E-12
  50 |   0.346842E+00 |   0.249469E-13 |   0.865261E-14 |   0.134184E-08 |   0.311132E-11 |   0.100000E-12
  51 |   0.198705E+00 |   0.200153E-13 |   0.397715E-14 |   0.911775E-09 |   0.143654E-11 |   0.100000E-12
  52 |   0.376280E+00 |   0.365820E-14 |   0.137651E-14 |   0.575871E-09 |   0.573053E-12 |   0.100000E-12
  53 |   0.735253E+00 |   0.599650E-15 |   0.440894E-15 |   0.410457E-09 |   0.291125E-12 |   0.100000E-12
  54 |   0.920722E+00 |   0.134419E-15 |   0.123763E-15 |   0.187191E-09 |   0.605499E-13 |   0.100000E-12

 Charges are converged, EXIT

%%%% DENSITY %%%%%%%%%%%%%%%%%%%%%%%%%%%%%%%%%%%%%%%%%%%%%%%%%%%%%%%%%%%%%%%%%%%

 density label              = velectrostatic                                    

 integral of density        =  -0.5269858624E-13

%%%% CHARGES %%%%%%%%%%%%%%%%%%%%%%%%%%%%%%%%%%%%%%%%%%%%%%%%%%%%%%%%%%%%%%%%%%%

 total number of charges    =             11

 total charge               =     -0.0000000

%%%% DENSITY %%%%%%%%%%%%%%%%%%%%%%%%%%%%%%%%%%%%%%%%%%%%%%%%%%%%%%%%%%%%%%%%%%%

 density label              = vsoftcavity                                       

 integral of density        =    11.47392027    

%%%% DENSITY %%%%%%%%%%%%%%%%%%%%%%%%%%%%%%%%%%%%%%%%%%%%%%%%%%%%%%%%%%%%%%%%%%%

 density label              = dvtot                                             

 integral of density        =    11.47392027    

%%%% ELECTRONS %%%%%%%%%%%%%%%%%%%%%%%%%%%%%%%%%%%%%%%%%%%%%%%%%%%%%%%%%%%%%%%%%

 number of electrons        =              8

 total electronic charge    =      8.0000000

%%%% ELECTRONS %%%%%%%%%%%%%%%%%%%%%%%%%%%%%%%%%%%%%%%%%%%%%%%%%%%%%%%%%%%%%%%%%

 number of electrons        =              8

 total electronic charge    =      8.0000000

%%%% CHARGES %%%%%%%%%%%%%%%%%%%%%%%%%%%%%%%%%%%%%%%%%%%%%%%%%%%%%%%%%%%%%%%%%%%

 total number of charges    =             11

 total charge               =      0.0000000

%%%% CHARGES %%%%%%%%%%%%%%%%%%%%%%%%%%%%%%%%%%%%%%%%%%%%%%%%%%%%%%%%%%%%%%%%%%%

 total number of charges    =             11

 total charge               =      0.0000000

%%%% BOUNDARY %%%%%%%%%%%%%%%%%%%%%%%%%%%%%%%%%%%%%%%%%%%%%%%%%%%%%%%%%%%%%%%%%%

 boundary label             = solvent             
 boundary mode              = electronic          

 boundary is built as a type-1 function of a smooth density

 using the optimal SCCS function:
 rhomax                     =      0.0050000
 rhomin                     =      0.0001000

 volume of the QM region    =    229.5035101

 surface of the QM region   =    180.4534844

%%%% DENSITY %%%%%%%%%%%%%%%%%%%%%%%%%%%%%%%%%%%%%%%%%%%%%%%%%%%%%%%%%%%%%%%%%%%

 density label              = vreference                                        

 integral of density        =   0.1892806899E-12

%%%% COMPUTE ELECTROSTATIC POTENTIAL %%%%%%%%%%%%%%%%%%%%%%%%%%%%%%%%%%%%%%%%%%%

 Warning: Bad guess with residual norm =   0.235302E+03, reset to no guess

   i |      alpha     |       pAp      |      rzold     |    delta_qm    |    delta_en    |       tol
 ---------------------------------------------------------------------------------------------------------
   1 |   0.983773E+00 |   0.288709E+02 |   0.284024E+02 |   0.114982E-01 |   0.228457E+03 |   0.100000E-12
   2 |   0.115417E+00 |   0.267787E+02 |   0.309073E+01 |   0.268798E-02 |   0.124852E+02 |   0.100000E-12
   3 |   0.150992E+00 |   0.132459E+01 |   0.200002E+00 |   0.845713E-03 |   0.123592E+01 |   0.100000E-12
   4 |   0.127542E+00 |   0.167902E+00 |   0.214145E-01 |   0.548817E-03 |   0.520474E+00 |   0.100000E-12
   5 |   0.284969E+00 |   0.605713E-02 |   0.172609E-02 |   0.348175E-03 |   0.209478E+00 |   0.100000E-12
   6 |   0.416056E+00 |   0.150974E-02 |   0.628134E-03 |   0.273423E-03 |   0.129186E+00 |   0.100000E-12
   7 |   0.316500E+00 |   0.905127E-03 |   0.286473E-03 |   0.298794E-03 |   0.154272E+00 |   0.100000E-12
   8 |   0.168260E+01 |   0.667367E-04 |   0.112291E-03 |   0.269136E-03 |   0.125166E+00 |   0.100000E-12
   9 |   0.737086E+00 |   0.557258E-03 |   0.410747E-03 |   0.237348E-03 |   0.973451E-01 |   0.100000E-12
  10 |   0.238329E+00 |   0.104967E-02 |   0.250167E-03 |   0.210052E-03 |   0.762429E-01 |   0.100000E-12
  11 |   0.254335E+00 |   0.412913E-03 |   0.105018E-03 |   0.174816E-03 |   0.528087E-01 |   0.100000E-12
  12 |   0.434853E+00 |   0.134336E-03 |   0.584164E-04 |   0.136337E-03 |   0.321198E-01 |   0.100000E-12
  13 |   0.625041E+00 |   0.654500E-04 |   0.409089E-04 |   0.118721E-03 |   0.243557E-01 |   0.100000E-12
  14 |   0.568805E+00 |   0.853013E-04 |   0.485198E-04 |   0.130384E-03 |   0.293759E-01 |   0.100000E-12
  15 |   0.614786E+00 |   0.680842E-04 |   0.418572E-04 |   0.982642E-04 |   0.166853E-01 |   0.100000E-12
  16 |   0.408243E+00 |   0.123474E-03 |   0.504074E-04 |   0.840634E-04 |   0.122112E-01 |   0.100000E-12
  17 |   0.338300E+00 |   0.474721E-04 |   0.160598E-04 |   0.816773E-04 |   0.115278E-01 |   0.100000E-12
  18 |   0.495943E+00 |   0.262083E-04 |   0.129978E-04 |   0.764256E-04 |   0.100930E-01 |   0.100000E-12
  19 |   0.690743E+00 |   0.412601E-04 |   0.285001E-04 |   0.990345E-04 |   0.169479E-01 |   0.100000E-12
  20 |   0.786235E+00 |   0.434089E-04 |   0.341296E-04 |   0.921043E-04 |   0.146590E-01 |   0.100000E-12
  21 |   0.506876E+00 |   0.409808E-04 |   0.207722E-04 |   0.814962E-04 |   0.114767E-01 |   0.100000E-12
  22 |   0.614369E+00 |   0.154716E-04 |   0.950525E-05 |   0.537015E-04 |   0.498329E-02 |   0.100000E-12
  23 |   0.678579E+00 |   0.833239E-05 |   0.565419E-05 |   0.388987E-04 |   0.261465E-02 |   0.100000E-12
  24 |   0.455322E+00 |   0.869612E-05 |   0.395954E-05 |   0.295349E-04 |   0.150735E-02 |   0.100000E-12
  25 |   0.487809E+00 |   0.469713E-05 |   0.229131E-05 |   0.181533E-04 |   0.569447E-03 |   0.100000E-12
  26 |   0.460189E+00 |   0.935076E-06 |   0.430312E-06 |   0.107671E-04 |   0.200330E-03 |   0.100000E-12
  27 |   0.152249E+00 |   0.215274E-05 |   0.327753E-06 |   0.899270E-05 |   0.139741E-03 |   0.100000E-12
  28 |   0.355877E+00 |   0.339607E-06 |   0.120858E-06 |   0.498185E-05 |   0.428869E-04 |   0.100000E-12
  29 |   0.465293E+00 |   0.751220E-07 |   0.349537E-07 |   0.250577E-05 |   0.108499E-04 |   0.100000E-12
  30 |   0.564947E+00 |   0.143711E-07 |   0.811893E-08 |   0.102409E-05 |   0.181226E-05 |   0.100000E-12
  31 |   0.574922E+00 |   0.287350E-08 |   0.165204E-08 |   0.606696E-06 |   0.636042E-06 |   0.100000E-12
  32 |   0.547913E+00 |   0.135602E-08 |   0.742978E-09 |   0.459915E-06 |   0.365510E-06 |   0.100000E-12
  33 |   0.411634E+00 |   0.761584E-09 |   0.313494E-09 |   0.348070E-06 |   0.209352E-06 |   0.100000E-12
  34 |   0.499108E+00 |   0.431953E-09 |   0.215591E-09 |   0.199508E-06 |   0.687800E-07 |   0.100000E-12
  35 |   0.338360E+00 |   0.300253E-09 |   0.101594E-09 |   0.154394E-06 |   0.411913E-07 |   0.100000E-12
  36 |   0.262143E+00 |   0.387415E-09 |   0.101558E-09 |   0.140530E-06 |   0.341257E-07 |   0.100000E-12
  37 |   0.547548E+00 |   0.518814E-10 |   0.284075E-10 |   0.121842E-06 |   0.256528E-07 |   0.100000E-12
  38 |   0.938116E+00 |   0.229396E-10 |   0.215200E-10 |   0.635754E-07 |   0.698429E-08 |   0.100000E-12
  39 |   0.580842E+00 |   0.141974E-10 |   0.824646E-11 |   0.448870E-07 |   0.348166E-08 |   0.100000E-12
  40 |   0.364866E+00 |   0.653866E-11 |   0.238574E-11 |   0.299834E-07 |   0.155348E-08 |   0.100000E-12
  41 |   0.302827E+00 |   0.104562E-10 |   0.316642E-11 |   0.291563E-07 |   0.146895E-08 |   0.100000E-12
  42 |   0.102330E+01 |   0.161242E-11 |   0.164999E-11 |   0.383742E-07 |   0.254462E-08 |   0.100000E-12
  43 |   0.701904E+00 |   0.271478E-11 |   0.190551E-11 |   0.409346E-07 |   0.289550E-08 |   0.100000E-12
  44 |   0.529401E+00 |   0.305163E-11 |   0.161554E-11 |   0.290795E-07 |   0.146123E-08 |   0.100000E-12
  45 |   0.448403E+00 |   0.211770E-11 |   0.949584E-12 |   0.161833E-07 |   0.452561E-09 |   0.100000E-12
  46 |   0.369651E+00 |   0.106277E-11 |   0.392856E-12 |   0.921581E-08 |   0.146761E-09 |   0.100000E-12
  47 |   0.260462E+00 |   0.687491E-12 |   0.179065E-12 |   0.581931E-08 |   0.585177E-10 |   0.100000E-12
  48 |   0.218785E+00 |   0.425881E-12 |   0.931764E-13 |   0.361880E-08 |   0.226294E-10 |   0.100000E-12
  49 |   0.266462E+00 |   0.822683E-13 |   0.219214E-13 |   0.226620E-08 |   0.887442E-11 |   0.100000E-12
  50 |   0.175554E+00 |   0.948306E-13 |   0.166479E-13 |   0.130957E-08 |   0.296349E-11 |   0.100000E-12
  51 |   0.356062E+00 |   0.757767E-14 |   0.269812E-14 |   0.721251E-09 |   0.898910E-12 |   0.100000E-12
  52 |   0.434626E+00 |   0.194447E-14 |   0.845117E-15 |   0.453811E-09 |   0.355872E-12 |   0.100000E-12
  53 |   0.736134E+00 |   0.382763E-15 |   0.281765E-15 |   0.313356E-09 |   0.169676E-12 |   0.100000E-12
  54 |   0.823775E+00 |   0.996182E-16 |   0.820630E-16 |   0.151778E-09 |   0.398072E-13 |   0.100000E-12

 Charges are converged, EXIT

%%%% DENSITY %%%%%%%%%%%%%%%%%%%%%%%%%%%%%%%%%%%%%%%%%%%%%%%%%%%%%%%%%%%%%%%%%%%

 density label              = velectrostatic                                    

 integral of density        =  -0.2314527171E-12

%%%% CHARGES %%%%%%%%%%%%%%%%%%%%%%%%%%%%%%%%%%%%%%%%%%%%%%%%%%%%%%%%%%%%%%%%%%%

 total number of charges    =             11

 total charge               =      0.0000000

%%%% DENSITY %%%%%%%%%%%%%%%%%%%%%%%%%%%%%%%%%%%%%%%%%%%%%%%%%%%%%%%%%%%%%%%%%%%

 density label              = vsoftcavity                                       

 integral of density        =    12.18565865    

%%%% DENSITY %%%%%%%%%%%%%%%%%%%%%%%%%%%%%%%%%%%%%%%%%%%%%%%%%%%%%%%%%%%%%%%%%%%

 density label              = dvtot                                             

 integral of density        =    12.18565865    

%%%% ELECTRONS %%%%%%%%%%%%%%%%%%%%%%%%%%%%%%%%%%%%%%%%%%%%%%%%%%%%%%%%%%%%%%%%%

 number of electrons        =              8

 total electronic charge    =      8.0000000

%%%% ELECTRONS %%%%%%%%%%%%%%%%%%%%%%%%%%%%%%%%%%%%%%%%%%%%%%%%%%%%%%%%%%%%%%%%%

 number of electrons        =              8

 total electronic charge    =      8.0000000

%%%% CHARGES %%%%%%%%%%%%%%%%%%%%%%%%%%%%%%%%%%%%%%%%%%%%%%%%%%%%%%%%%%%%%%%%%%%

 total number of charges    =             11

 total charge               =     -0.0000000

%%%% CHARGES %%%%%%%%%%%%%%%%%%%%%%%%%%%%%%%%%%%%%%%%%%%%%%%%%%%%%%%%%%%%%%%%%%%

 total number of charges    =             11

 total charge               =     -0.0000000

%%%% BOUNDARY %%%%%%%%%%%%%%%%%%%%%%%%%%%%%%%%%%%%%%%%%%%%%%%%%%%%%%%%%%%%%%%%%%

 boundary label             = solvent             
 boundary mode              = electronic          

 boundary is built as a type-1 function of a smooth density

 using the optimal SCCS function:
 rhomax                     =      0.0050000
 rhomin                     =      0.0001000

 volume of the QM region    =    229.9272725

 surface of the QM region   =    180.6857351

%%%% DENSITY %%%%%%%%%%%%%%%%%%%%%%%%%%%%%%%%%%%%%%%%%%%%%%%%%%%%%%%%%%%%%%%%%%%

 density label              = vreference                                        

 integral of density        =   0.1710565845E-14

%%%% COMPUTE ELECTROSTATIC POTENTIAL %%%%%%%%%%%%%%%%%%%%%%%%%%%%%%%%%%%%%%%%%%%

 Warning: Bad guess with residual norm =   0.246886E+03, reset to no guess

   i |      alpha     |       pAp      |      rzold     |    delta_qm    |    delta_en    |       tol
 ---------------------------------------------------------------------------------------------------------
   1 |   0.983756E+00 |   0.289221E+02 |   0.284523E+02 |   0.117767E-01 |   0.239659E+03 |   0.100000E-12
   2 |   0.116131E+00 |   0.265590E+02 |   0.308432E+01 |   0.269112E-02 |   0.125144E+02 |   0.100000E-12
   3 |   0.149712E+00 |   0.132644E+01 |   0.198584E+00 |   0.857405E-03 |   0.127033E+01 |   0.100000E-12
   4 |   0.124836E+00 |   0.175559E+00 |   0.219160E-01 |   0.562022E-03 |   0.545822E+00 |   0.100000E-12
   5 |   0.281877E+00 |   0.629854E-02 |   0.177542E-02 |   0.359393E-03 |   0.223194E+00 |   0.100000E-12
   6 |   0.418844E+00 |   0.155967E-02 |   0.653258E-03 |   0.285698E-03 |   0.141045E+00 |   0.100000E-12
   7 |   0.318922E+00 |   0.931275E-03 |   0.297004E-03 |   0.313266E-03 |   0.169578E+00 |   0.100000E-12
   8 |   0.169513E+01 |   0.708031E-04 |   0.120020E-03 |   0.282179E-03 |   0.137592E+00 |   0.100000E-12
   9 |   0.723702E+00 |   0.623554E-03 |   0.451268E-03 |   0.251545E-03 |   0.109339E+00 |   0.100000E-12
  10 |   0.221342E+00 |   0.124977E-02 |   0.276626E-03 |   0.226320E-03 |   0.885091E-01 |   0.100000E-12
  11 |   0.264631E+00 |   0.436618E-03 |   0.115543E-03 |   0.188947E-03 |   0.616913E-01 |   0.100000E-12
  12 |   0.461641E+00 |   0.136885E-03 |   0.631918E-04 |   0.148058E-03 |   0.378799E-01 |   0.100000E-12
  13 |   0.613993E+00 |   0.780963E-04 |   0.479506E-04 |   0.130900E-03 |   0.296089E-01 |   0.100000E-12
  14 |   0.585598E+00 |   0.930268E-04 |   0.544763E-04 |   0.141175E-03 |   0.344395E-01 |   0.100000E-12
  15 |   0.606046E+00 |   0.830176E-04 |   0.503125E-04 |   0.107867E-03 |   0.201058E-01 |   0.100000E-12
  16 |   0.407470E+00 |   0.143214E-03 |   0.583553E-04 |   0.951059E-04 |   0.156300E-01 |   0.100000E-12
  17 |   0.406282E+00 |   0.420149E-04 |   0.170699E-04 |   0.902482E-04 |   0.140741E-01 |   0.100000E-12
  18 |   0.728979E+00 |   0.202647E-04 |   0.147726E-04 |   0.874511E-04 |   0.132152E-01 |   0.100000E-12
  19 |   0.416646E+00 |   0.114585E-03 |   0.477415E-04 |   0.108865E-03 |   0.204797E-01 |   0.100000E-12
  20 |   0.694283E+00 |   0.627613E-04 |   0.435741E-04 |   0.102228E-03 |   0.180584E-01 |   0.100000E-12
  21 |   0.536502E+00 |   0.412451E-04 |   0.221281E-04 |   0.895665E-04 |   0.138623E-01 |   0.100000E-12
  22 |   0.581716E+00 |   0.198732E-04 |   0.115605E-04 |   0.607131E-04 |   0.636954E-02 |   0.100000E-12
  23 |   0.662411E+00 |   0.107327E-04 |   0.710947E-05 |   0.438386E-04 |   0.332090E-02 |   0.100000E-12
  24 |   0.449054E+00 |   0.113971E-04 |   0.511793E-05 |   0.335072E-04 |   0.194008E-02 |   0.100000E-12
  25 |   0.498020E+00 |   0.561676E-05 |   0.279726E-05 |   0.199420E-04 |   0.687199E-03 |   0.100000E-12
  26 |   0.413276E+00 |   0.132509E-05 |   0.547627E-06 |   0.143722E-04 |   0.356934E-03 |   0.100000E-12
  27 |   0.145897E+00 |   0.381470E-05 |   0.556552E-06 |   0.995407E-05 |   0.171216E-03 |   0.100000E-12
  28 |   0.451137E+00 |   0.289505E-06 |   0.130606E-06 |   0.544240E-05 |   0.511828E-04 |   0.100000E-12
  29 |   0.439088E+00 |   0.987575E-07 |   0.433633E-07 |   0.284017E-05 |   0.139390E-04 |   0.100000E-12
  30 |   0.548773E+00 |   0.201303E-07 |   0.110470E-07 |   0.123743E-05 |   0.264599E-05 |   0.100000E-12
  31 |   0.642948E+00 |   0.328213E-08 |   0.211024E-08 |   0.704491E-06 |   0.857620E-06 |   0.100000E-12
  32 |   0.547892E+00 |   0.171581E-08 |   0.940077E-09 |   0.531567E-06 |   0.488270E-06 |   0.100000E-12
  33 |   0.671809E+00 |   0.434511E-09 |   0.291908E-09 |   0.307420E-06 |   0.163308E-06 |   0.100000E-12
  34 |   0.386195E+00 |   0.512867E-09 |   0.198067E-09 |   0.188795E-06 |   0.615920E-07 |   0.100000E-12
  35 |   0.375409E+00 |   0.287074E-09 |   0.107770E-09 |   0.146249E-06 |   0.369596E-07 |   0.100000E-12
  36 |   0.220499E+00 |   0.316943E-09 |   0.698857E-10 |   0.145322E-06 |   0.364926E-07 |   0.100000E-12
  37 |   0.460843E+00 |   0.660642E-10 |   0.304452E-10 |   0.117589E-06 |   0.238935E-07 |   0.100000E-12
  38 |   0.736707E+00 |   0.341546E-10 |   0.251619E-10 |   0.604789E-07 |   0.632051E-08 |   0.100000E-12
  39 |   0.540222E+00 |   0.141289E-10 |   0.763274E-11 |   0.338896E-07 |   0.198462E-08 |   0.100000E-12
  40 |   0.429937E+00 |   0.267127E-11 |   0.114848E-11 |   0.204324E-07 |   0.721412E-09 |   0.100000E-12
  41 |   0.188945E+00 |   0.373586E-11 |   0.705873E-12 |   0.164593E-07 |   0.468132E-09 |   0.100000E-12
  42 |   0.481268E+00 |   0.575516E-12 |   0.276978E-12 |   0.789302E-08 |   0.107654E-09 |   0.100000E-12
  43 |   0.389431E+00 |   0.472677E-12 |   0.184075E-12 |   0.813382E-08 |   0.114323E-09 |   0.100000E-12
  44 |   0.763648E+00 |   0.139024E-12 |   0.106165E-12 |   0.984333E-08 |   0.167428E-09 |   0.100000E-12
  45 |   0.842438E+00 |   0.128484E-12 |   0.108240E-12 |   0.979474E-08 |   0.165779E-09 |   0.100000E-12
  46 |   0.657936E+00 |   0.190085E-12 |   0.125064E-12 |   0.766534E-08 |   0.101533E-09 |   0.100000E-12
  47 |   0.268841E+00 |   0.475959E-12 |   0.127957E-12 |   0.614871E-08 |   0.653299E-10 |   0.100000E-12
  48 |   0.230934E+00 |   0.405893E-12 |   0.937345E-13 |   0.416792E-08 |   0.300181E-10 |   0.100000E-12
  49 |   0.229306E+00 |   0.136868E-12 |   0.313846E-13 |   0.289978E-08 |   0.145303E-10 |   0.100000E-12
  50 |   0.219305E+00 |   0.938006E-13 |   0.205709E-13 |   0.155359E-08 |   0.417079E-11 |   0.100000E-12
  51 |   0.387064E+00 |   0.743740E-14 |   0.287875E-14 |   0.810848E-09 |   0.113612E-11 |   0.100000E-12
  52 |   0.400566E+00 |   0.203991E-14 |   0.817120E-15 |   0.432947E-09 |   0.323902E-12 |   0.100000E-12
  53 |   0.591455E+00 |   0.381005E-15 |   0.225347E-15 |   0.240667E-09 |   0.100087E-12 |   0.100000E-12
  54 |   0.907948E+00 |   0.518722E-16 |   0.470973E-16 |   0.109877E-09 |   0.208622E-13 |   0.100000E-12

 Charges are converged, EXIT

%%%% DENSITY %%%%%%%%%%%%%%%%%%%%%%%%%%%%%%%%%%%%%%%%%%%%%%%%%%%%%%%%%%%%%%%%%%%

 density label              = velectrostatic                                    

 integral of density        =   0.4026408836E-13

%%%% CHARGES %%%%%%%%%%%%%%%%%%%%%%%%%%%%%%%%%%%%%%%%%%%%%%%%%%%%%%%%%%%%%%%%%%%

 total number of charges    =             11

 total charge               =     -0.0000000

%%%% DENSITY %%%%%%%%%%%%%%%%%%%%%%%%%%%%%%%%%%%%%%%%%%%%%%%%%%%%%%%%%%%%%%%%%%%

 density label              = vsoftcavity                                       

 integral of density        =    12.20956650    

%%%% DENSITY %%%%%%%%%%%%%%%%%%%%%%%%%%%%%%%%%%%%%%%%%%%%%%%%%%%%%%%%%%%%%%%%%%%

 density label              = dvtot                                             

 integral of density        =    12.20956650    

%%%% ELECTRONS %%%%%%%%%%%%%%%%%%%%%%%%%%%%%%%%%%%%%%%%%%%%%%%%%%%%%%%%%%%%%%%%%

 number of electrons        =              8

 total electronic charge    =      8.0000000

%%%% ELECTRONS %%%%%%%%%%%%%%%%%%%%%%%%%%%%%%%%%%%%%%%%%%%%%%%%%%%%%%%%%%%%%%%%%

 number of electrons        =              8

 total electronic charge    =      8.0000000

%%%% CHARGES %%%%%%%%%%%%%%%%%%%%%%%%%%%%%%%%%%%%%%%%%%%%%%%%%%%%%%%%%%%%%%%%%%%

 total number of charges    =             11

 total charge               =      0.0000000

%%%% CHARGES %%%%%%%%%%%%%%%%%%%%%%%%%%%%%%%%%%%%%%%%%%%%%%%%%%%%%%%%%%%%%%%%%%%

 total number of charges    =             11

 total charge               =      0.0000000

%%%% BOUNDARY %%%%%%%%%%%%%%%%%%%%%%%%%%%%%%%%%%%%%%%%%%%%%%%%%%%%%%%%%%%%%%%%%%

 boundary label             = solvent             
 boundary mode              = electronic          

 boundary is built as a type-1 function of a smooth density

 using the optimal SCCS function:
 rhomax                     =      0.0050000
 rhomin                     =      0.0001000

 volume of the QM region    =    230.3632191

 surface of the QM region   =    180.8957282

%%%% DENSITY %%%%%%%%%%%%%%%%%%%%%%%%%%%%%%%%%%%%%%%%%%%%%%%%%%%%%%%%%%%%%%%%%%%

 density label              = vreference                                        

 integral of density        =   0.5671183687E-13

%%%% COMPUTE ELECTROSTATIC POTENTIAL %%%%%%%%%%%%%%%%%%%%%%%%%%%%%%%%%%%%%%%%%%%

 Warning: Bad guess with residual norm =   0.240800E+03, reset to no guess

   i |      alpha     |       pAp      |      rzold     |    delta_qm    |    delta_en    |       tol
 ---------------------------------------------------------------------------------------------------------
   1 |   0.983765E+00 |   0.289160E+02 |   0.284465E+02 |   0.116312E-01 |   0.233772E+03 |   0.100000E-12
   2 |   0.116358E+00 |   0.264143E+02 |   0.307351E+01 |   0.267900E-02 |   0.124019E+02 |   0.100000E-12
   3 |   0.150223E+00 |   0.132167E+01 |   0.198546E+00 |   0.849092E-03 |   0.124581E+01 |   0.100000E-12
   4 |   0.124852E+00 |   0.174851E+00 |   0.218305E-01 |   0.558758E-03 |   0.539500E+00 |   0.100000E-12
   5 |   0.280497E+00 |   0.637399E-02 |   0.178788E-02 |   0.358341E-03 |   0.221890E+00 |   0.100000E-12
   6 |   0.419546E+00 |   0.155241E-02 |   0.651308E-03 |   0.283009E-03 |   0.138402E+00 |   0.100000E-12
   7 |   0.319560E+00 |   0.938330E-03 |   0.299853E-03 |   0.310574E-03 |   0.166676E+00 |   0.100000E-12
   8 |   0.167926E+01 |   0.716057E-04 |   0.120245E-03 |   0.279563E-03 |   0.135053E+00 |   0.100000E-12
   9 |   0.734830E+00 |   0.614617E-03 |   0.451639E-03 |   0.248544E-03 |   0.106745E+00 |   0.100000E-12
  10 |   0.222397E+00 |   0.121422E-02 |   0.270039E-03 |   0.223243E-03 |   0.861194E-01 |   0.100000E-12
  11 |   0.265161E+00 |   0.420085E-03 |   0.111390E-03 |   0.186078E-03 |   0.598318E-01 |   0.100000E-12
  12 |   0.467124E+00 |   0.137247E-03 |   0.641112E-04 |   0.145074E-03 |   0.363684E-01 |   0.100000E-12
  13 |   0.598793E+00 |   0.814201E-04 |   0.487538E-04 |   0.130623E-03 |   0.294837E-01 |   0.100000E-12
  14 |   0.599530E+00 |   0.900755E-04 |   0.540030E-04 |   0.139099E-03 |   0.334341E-01 |   0.100000E-12
  15 |   0.592805E+00 |   0.868776E-04 |   0.515015E-04 |   0.106707E-03 |   0.196758E-01 |   0.100000E-12
  16 |   0.409002E+00 |   0.140208E-03 |   0.573455E-04 |   0.945214E-04 |   0.154384E-01 |   0.100000E-12
  17 |   0.426540E+00 |   0.394192E-04 |   0.168139E-04 |   0.892811E-04 |   0.137741E-01 |   0.100000E-12
  18 |   0.117316E+01 |   0.118103E-04 |   0.138555E-04 |   0.930008E-04 |   0.149457E-01 |   0.100000E-12
  19 |   0.344880E+00 |   0.141195E-03 |   0.486954E-04 |   0.107624E-03 |   0.200152E-01 |   0.100000E-12
  20 |   0.495781E+00 |   0.113280E-03 |   0.561620E-04 |   0.101255E-03 |   0.177164E-01 |   0.100000E-12
  21 |   0.537967E+00 |   0.401230E-04 |   0.215849E-04 |   0.882680E-04 |   0.134633E-01 |   0.100000E-12
  22 |   0.583879E+00 |   0.199903E-04 |   0.116719E-04 |   0.599186E-04 |   0.620393E-02 |   0.100000E-12
  23 |   0.673500E+00 |   0.105765E-04 |   0.712325E-05 |   0.436856E-04 |   0.329777E-02 |   0.100000E-12
  24 |   0.441232E+00 |   0.118287E-04 |   0.521919E-05 |   0.336624E-04 |   0.195810E-02 |   0.100000E-12
  25 |   0.500792E+00 |   0.547913E-05 |   0.274391E-05 |   0.197886E-04 |   0.676662E-03 |   0.100000E-12
  26 |   0.468570E+00 |   0.113468E-05 |   0.531679E-06 |   0.130218E-04 |   0.293011E-03 |   0.100000E-12
  27 |   0.148810E+00 |   0.251172E-05 |   0.373769E-06 |   0.957405E-05 |   0.158393E-03 |   0.100000E-12
  28 |   0.390838E+00 |   0.370610E-06 |   0.144848E-06 |   0.525948E-05 |   0.478002E-04 |   0.100000E-12
  29 |   0.430352E+00 |   0.100819E-06 |   0.433877E-07 |   0.277912E-05 |   0.133462E-04 |   0.100000E-12
  30 |   0.563211E+00 |   0.191730E-07 |   0.107985E-07 |   0.121962E-05 |   0.257034E-05 |   0.100000E-12
  31 |   0.635922E+00 |   0.331181E-08 |   0.210605E-08 |   0.710258E-06 |   0.871718E-06 |   0.100000E-12
  32 |   0.546096E+00 |   0.173039E-08 |   0.944960E-09 |   0.524969E-06 |   0.476224E-06 |   0.100000E-12
  33 |   0.700470E+00 |   0.394986E-09 |   0.276676E-09 |   0.286724E-06 |   0.142060E-06 |   0.100000E-12
  34 |   0.421433E+00 |   0.412289E-09 |   0.173752E-09 |   0.172786E-06 |   0.515896E-07 |   0.100000E-12
  35 |   0.427452E+00 |   0.208132E-09 |   0.889664E-10 |   0.142833E-06 |   0.352532E-07 |   0.100000E-12
  36 |   0.452078E+00 |   0.782594E-10 |   0.353793E-10 |   0.129768E-06 |   0.290989E-07 |   0.100000E-12
  37 |   0.710069E+00 |   0.314144E-10 |   0.223064E-10 |   0.863937E-07 |   0.128976E-07 |   0.100000E-12
  38 |   0.198305E+00 |   0.233688E-09 |   0.463415E-10 |   0.599153E-07 |   0.620324E-08 |   0.100000E-12
  39 |   0.501217E+00 |   0.160436E-10 |   0.804131E-11 |   0.340556E-07 |   0.200411E-08 |   0.100000E-12
  40 |   0.320374E+00 |   0.447064E-11 |   0.143228E-11 |   0.281155E-07 |   0.136596E-08 |   0.100000E-12
  41 |   0.240680E+00 |   0.557029E-11 |   0.134065E-11 |   0.171011E-07 |   0.505350E-09 |   0.100000E-12
  42 |   0.769619E+00 |   0.524952E-12 |   0.404013E-12 |   0.136502E-07 |   0.321973E-09 |   0.100000E-12
  43 |   0.476175E+00 |   0.914693E-12 |   0.435555E-12 |   0.177651E-07 |   0.545352E-09 |   0.100000E-12
  44 |   0.741970E+00 |   0.523726E-12 |   0.388589E-12 |   0.194351E-07 |   0.652704E-09 |   0.100000E-12
  45 |   0.732568E+00 |   0.519384E-12 |   0.380484E-12 |   0.143881E-07 |   0.357726E-09 |   0.100000E-12
  46 |   0.561552E+00 |   0.488543E-12 |   0.274343E-12 |   0.852321E-08 |   0.125531E-09 |   0.100000E-12
  47 |   0.253150E+00 |   0.573059E-12 |   0.145070E-12 |   0.631216E-08 |   0.688494E-10 |   0.100000E-12
  48 |   0.183528E+00 |   0.660592E-12 |   0.121237E-12 |   0.405126E-08 |   0.283612E-10 |   0.100000E-12
  49 |   0.430108E+00 |   0.505545E-13 |   0.217439E-13 |   0.183954E-08 |   0.584736E-11 |   0.100000E-12
  50 |   0.245366E+00 |   0.198905E-13 |   0.488044E-14 |   0.121171E-08 |   0.253712E-11 |   0.100000E-12
  51 |   0.251582E+00 |   0.112100E-13 |   0.282024E-14 |   0.654782E-09 |   0.740863E-12 |   0.100000E-12
  52 |   0.379148E+00 |   0.144897E-14 |   0.549373E-15 |   0.382425E-09 |   0.252718E-12 |   0.100000E-12
  53 |   0.459519E+00 |   0.506898E-15 |   0.232929E-15 |   0.224477E-09 |   0.870741E-13 |   0.100000E-12

 Charges are converged, EXIT

%%%% DENSITY %%%%%%%%%%%%%%%%%%%%%%%%%%%%%%%%%%%%%%%%%%%%%%%%%%%%%%%%%%%%%%%%%%%

 density label              = velectrostatic                                    

 integral of density        =  -0.2942173254E-12

%%%% CHARGES %%%%%%%%%%%%%%%%%%%%%%%%%%%%%%%%%%%%%%%%%%%%%%%%%%%%%%%%%%%%%%%%%%%

 total number of charges    =             11

 total charge               =      0.0000000

%%%% DENSITY %%%%%%%%%%%%%%%%%%%%%%%%%%%%%%%%%%%%%%%%%%%%%%%%%%%%%%%%%%%%%%%%%%%

 density label              = vsoftcavity                                       

 integral of density        =    12.26028119    

%%%% DENSITY %%%%%%%%%%%%%%%%%%%%%%%%%%%%%%%%%%%%%%%%%%%%%%%%%%%%%%%%%%%%%%%%%%%

 density label              = dvtot                                             

 integral of density        =    12.26028119    

%%%% ELECTRONS %%%%%%%%%%%%%%%%%%%%%%%%%%%%%%%%%%%%%%%%%%%%%%%%%%%%%%%%%%%%%%%%%

 number of electrons        =              8

 total electronic charge    =      8.0000000

%%%% ELECTRONS %%%%%%%%%%%%%%%%%%%%%%%%%%%%%%%%%%%%%%%%%%%%%%%%%%%%%%%%%%%%%%%%%

 number of electrons        =              8

 total electronic charge    =      8.0000000

%%%% CHARGES %%%%%%%%%%%%%%%%%%%%%%%%%%%%%%%%%%%%%%%%%%%%%%%%%%%%%%%%%%%%%%%%%%%

 total number of charges    =             11

 total charge               =      0.0000000

%%%% CHARGES %%%%%%%%%%%%%%%%%%%%%%%%%%%%%%%%%%%%%%%%%%%%%%%%%%%%%%%%%%%%%%%%%%%

 total number of charges    =             11

 total charge               =      0.0000000

%%%% BOUNDARY %%%%%%%%%%%%%%%%%%%%%%%%%%%%%%%%%%%%%%%%%%%%%%%%%%%%%%%%%%%%%%%%%%

 boundary label             = solvent             
 boundary mode              = electronic          

 boundary is built as a type-1 function of a smooth density

 using the optimal SCCS function:
 rhomax                     =      0.0050000
 rhomin                     =      0.0001000

 volume of the QM region    =    230.7598034

 surface of the QM region   =    181.0886157

%%%% DENSITY %%%%%%%%%%%%%%%%%%%%%%%%%%%%%%%%%%%%%%%%%%%%%%%%%%%%%%%%%%%%%%%%%%%

 density label              = vreference                                        

 integral of density        =   0.2736905353E-13

%%%% COMPUTE ELECTROSTATIC POTENTIAL %%%%%%%%%%%%%%%%%%%%%%%%%%%%%%%%%%%%%%%%%%%

 Warning: Bad guess with residual norm =   0.237056E+03, reset to no guess

   i |      alpha     |       pAp      |      rzold     |    delta_qm    |    delta_en    |       tol
 ---------------------------------------------------------------------------------------------------------
   1 |   0.983760E+00 |   0.289144E+02 |   0.284448E+02 |   0.115407E-01 |   0.230147E+03 |   0.100000E-12
   2 |   0.116509E+00 |   0.263334E+02 |   0.306808E+01 |   0.267304E-02 |   0.123468E+02 |   0.100000E-12
[...]
  49 |   0.147690E+00 |   0.184883E-12 |   0.273053E-13 |   0.173876E-08 |   0.522425E-11 |   0.100000E-12
  50 |   0.471516E+00 |   0.710323E-14 |   0.334929E-14 |   0.741824E-09 |   0.950922E-12 |   0.100000E-12
  51 |   0.206674E+00 |   0.410564E-14 |   0.848529E-15 |   0.556078E-09 |   0.534336E-12 |   0.100000E-12
  52 |   0.420914E+00 |   0.115253E-14 |   0.485115E-15 |   0.278437E-09 |   0.133967E-12 |   0.100000E-12
  53 |   0.335760E+00 |   0.348098E-15 |   0.116877E-15 |   0.200596E-09 |   0.695325E-13 |   0.100000E-12

 Charges are converged, EXIT

%%%% DENSITY %%%%%%%%%%%%%%%%%%%%%%%%%%%%%%%%%%%%%%%%%%%%%%%%%%%%%%%%%%%%%%%%%%%

 density label              = velectrostatic                                    

 integral of density        =  -0.1501350484E-12

%%%% CHARGES %%%%%%%%%%%%%%%%%%%%%%%%%%%%%%%%%%%%%%%%%%%%%%%%%%%%%%%%%%%%%%%%%%%

 total number of charges    =             11

 total charge               =     -0.0000000

%%%% DENSITY %%%%%%%%%%%%%%%%%%%%%%%%%%%%%%%%%%%%%%%%%%%%%%%%%%%%%%%%%%%%%%%%%%%

 density label              = vsoftcavity                                       

 integral of density        =    12.34181801    

%%%% DENSITY %%%%%%%%%%%%%%%%%%%%%%%%%%%%%%%%%%%%%%%%%%%%%%%%%%%%%%%%%%%%%%%%%%%

 density label              = dvtot                                             

 integral of density        =    12.34181801    

%%%% ELECTRONS %%%%%%%%%%%%%%%%%%%%%%%%%%%%%%%%%%%%%%%%%%%%%%%%%%%%%%%%%%%%%%%%%

 number of electrons        =              8

 total electronic charge    =      8.0000000

%%%% ELECTRONS %%%%%%%%%%%%%%%%%%%%%%%%%%%%%%%%%%%%%%%%%%%%%%%%%%%%%%%%%%%%%%%%%

 number of electrons        =              8

 total electronic charge    =      8.0000000

%%%% CHARGES %%%%%%%%%%%%%%%%%%%%%%%%%%%%%%%%%%%%%%%%%%%%%%%%%%%%%%%%%%%%%%%%%%%

 total number of charges    =             11

 total charge               =      0.0000000

%%%% CHARGES %%%%%%%%%%%%%%%%%%%%%%%%%%%%%%%%%%%%%%%%%%%%%%%%%%%%%%%%%%%%%%%%%%%

 total number of charges    =             11

 total charge               =      0.0000000

%%%% BOUNDARY %%%%%%%%%%%%%%%%%%%%%%%%%%%%%%%%%%%%%%%%%%%%%%%%%%%%%%%%%%%%%%%%%%

 boundary label             = solvent             
 boundary mode              = electronic          

 boundary is built as a type-1 function of a smooth density

 using the optimal SCCS function:
 rhomax                     =      0.0050000
 rhomin                     =      0.0001000

 volume of the QM region    =    230.8488288

 surface of the QM region   =    181.1245456

%%%% DENSITY %%%%%%%%%%%%%%%%%%%%%%%%%%%%%%%%%%%%%%%%%%%%%%%%%%%%%%%%%%%%%%%%%%%

 density label              = vreference                                        

 integral of density        =   0.1030286967E-12

%%%% COMPUTE ELECTROSTATIC POTENTIAL %%%%%%%%%%%%%%%%%%%%%%%%%%%%%%%%%%%%%%%%%%%

 Warning: Bad guess with residual norm =   0.235450E+03, reset to no guess

   i |      alpha     |       pAp      |      rzold     |    delta_qm    |    delta_en    |       tol
 ---------------------------------------------------------------------------------------------------------
   1 |   0.983709E+00 |   0.289134E+02 |   0.284424E+02 |   0.115011E-01 |   0.228573E+03 |   0.100000E-12
   2 |   0.116578E+00 |   0.263740E+02 |   0.307461E+01 |   0.267514E-02 |   0.123662E+02 |   0.100000E-12
   3 |   0.150803E+00 |   0.132303E+01 |   0.199518E+00 |   0.843648E-03 |   0.122989E+01 |   0.100000E-12
   4 |   0.124989E+00 |   0.174605E+00 |   0.218237E-01 |   0.557157E-03 |   0.536413E+00 |   0.100000E-12
   5 |   0.279011E+00 |   0.648289E-02 |   0.180880E-02 |   0.358305E-03 |   0.221845E+00 |   0.100000E-12
   6 |   0.420106E+00 |   0.154791E-02 |   0.650287E-03 |   0.280716E-03 |   0.136169E+00 |   0.100000E-12
   7 |   0.320240E+00 |   0.948777E-03 |   0.303836E-03 |   0.308215E-03 |   0.164154E+00 |   0.100000E-12
   8 |   0.165577E+01 |   0.727985E-04 |   0.120538E-03 |   0.277101E-03 |   0.132684E+00 |   0.100000E-12
   9 |   0.749009E+00 |   0.602110E-03 |   0.450986E-03 |   0.245665E-03 |   0.104287E+00 |   0.100000E-12
  10 |   0.221492E+00 |   0.119791E-02 |   0.265328E-03 |   0.220459E-03 |   0.839845E-01 |   0.100000E-12
  11 |   0.266945E+00 |   0.399857E-03 |   0.106740E-03 |   0.183100E-03 |   0.579320E-01 |   0.100000E-12
  12 |   0.477918E+00 |   0.135667E-03 |   0.648379E-04 |   0.141385E-03 |   0.345424E-01 |   0.100000E-12
  13 |   0.577456E+00 |   0.858888E-04 |   0.495970E-04 |   0.130524E-03 |   0.294389E-01 |   0.100000E-12
  14 |   0.620220E+00 |   0.850268E-04 |   0.527354E-04 |   0.136373E-03 |   0.321367E-01 |   0.100000E-12
  15 |   0.576025E+00 |   0.919108E-04 |   0.529429E-04 |   0.104763E-03 |   0.189651E-01 |   0.100000E-12
  16 |   0.407792E+00 |   0.136242E-03 |   0.555586E-04 |   0.934219E-04 |   0.150814E-01 |   0.100000E-12
  17 |   0.433501E+00 |   0.383994E-04 |   0.166462E-04 |   0.881632E-04 |   0.134313E-01 |   0.100000E-12
  18 |   0.146964E+01 |   0.917066E-05 |   0.134776E-04 |   0.968789E-04 |   0.162182E-01 |   0.100000E-12
  19 |   0.962505E+00 |   0.368165E-04 |   0.354360E-04 |   0.102668E-03 |   0.182145E-01 |   0.100000E-12
  20 |   0.427175E+00 |   0.701644E-04 |   0.299725E-04 |   0.965071E-04 |   0.160939E-01 |   0.100000E-12
  21 |   0.256077E+00 |   0.888647E-04 |   0.227562E-04 |   0.835031E-04 |   0.120489E-01 |   0.100000E-12
  22 |   0.417236E+00 |   0.358912E-04 |   0.149751E-04 |   0.590017E-04 |   0.601552E-02 |   0.100000E-12
  23 |   0.670512E+00 |   0.107875E-04 |   0.723316E-05 |   0.437006E-04 |   0.330004E-02 |   0.100000E-12
  24 |   0.432472E+00 |   0.124270E-04 |   0.537433E-05 |   0.341128E-04 |   0.201084E-02 |   0.100000E-12
  25 |   0.487567E+00 |   0.551281E-05 |   0.268786E-05 |   0.194567E-04 |   0.654159E-03 |   0.100000E-12
  26 |   0.194795E+00 |   0.416760E-05 |   0.811826E-06 |   0.170818E-04 |   0.504208E-03 |   0.100000E-12
  27 |   0.273839E+00 |   0.224766E-05 |   0.615495E-06 |   0.990413E-05 |   0.169503E-03 |   0.100000E-12
  28 |   0.521458E+00 |   0.220528E-06 |   0.114996E-06 |   0.508945E-05 |   0.447595E-04 |   0.100000E-12
  29 |   0.426375E+00 |   0.101518E-06 |   0.432847E-07 |   0.271903E-05 |   0.127753E-04 |   0.100000E-12
  30 |   0.582867E+00 |   0.178344E-07 |   0.103951E-07 |   0.119518E-05 |   0.246837E-05 |   0.100000E-12
  31 |   0.617837E+00 |   0.341406E-08 |   0.210933E-08 |   0.716327E-06 |   0.886679E-06 |   0.100000E-12
  32 |   0.549829E+00 |   0.169741E-08 |   0.933283E-09 |   0.510072E-06 |   0.449580E-06 |   0.100000E-12
  33 |   0.691103E+00 |   0.370641E-09 |   0.256151E-09 |   0.274631E-06 |   0.130329E-06 |   0.100000E-12
  34 |   0.272328E+00 |   0.680278E-09 |   0.185259E-09 |   0.183660E-06 |   0.582874E-07 |   0.100000E-12
  35 |   0.280990E+00 |   0.491881E-09 |   0.138213E-09 |   0.133881E-06 |   0.309729E-07 |   0.100000E-12
  36 |   0.489598E+00 |   0.856345E-10 |   0.419265E-10 |   0.124001E-06 |   0.265701E-07 |   0.100000E-12
  37 |   0.113806E+01 |   0.142706E-10 |   0.162407E-10 |   0.763762E-07 |   0.100800E-07 |   0.100000E-12
  38 |   0.340045E+00 |   0.615626E-10 |   0.209341E-10 |   0.517471E-07 |   0.462717E-08 |   0.100000E-12
  39 |   0.395633E+00 |   0.198999E-10 |   0.787306E-11 |   0.328940E-07 |   0.186972E-08 |   0.100000E-12
  40 |   0.320978E+00 |   0.358264E-11 |   0.114995E-11 |   0.221314E-07 |   0.846375E-09 |   0.100000E-12
  41 |   0.225208E+00 |   0.470093E-11 |   0.105869E-11 |   0.154445E-07 |   0.412187E-09 |   0.100000E-12
  42 |   0.744945E+00 |   0.326674E-12 |   0.243355E-12 |   0.885609E-08 |   0.135528E-09 |   0.100000E-12
  43 |   0.733528E+00 |   0.213806E-12 |   0.156833E-12 |   0.114574E-07 |   0.226838E-09 |   0.100000E-12
  44 |   0.793056E+00 |   0.183341E-12 |   0.145400E-12 |   0.119195E-07 |   0.245504E-09 |   0.100000E-12
  45 |   0.552860E+00 |   0.362582E-12 |   0.200457E-12 |   0.103002E-07 |   0.183330E-09 |   0.100000E-12
  46 |   0.223311E+00 |   0.114001E-11 |   0.254576E-12 |   0.859725E-08 |   0.127721E-09 |   0.100000E-12
  47 |   0.284810E+00 |   0.702538E-12 |   0.200090E-12 |   0.624618E-08 |   0.674176E-10 |   0.100000E-12
  48 |   0.378699E+00 |   0.186626E-12 |   0.706752E-13 |   0.378415E-08 |   0.247446E-10 |   0.100000E-12
  49 |   0.446544E+00 |   0.418644E-13 |   0.186943E-13 |   0.175192E-08 |   0.530359E-11 |   0.100000E-12
  50 |   0.509704E+00 |   0.641146E-14 |   0.326795E-14 |   0.724997E-09 |   0.908273E-12 |   0.100000E-12
  51 |   0.391592E+00 |   0.145074E-14 |   0.568097E-15 |   0.454178E-09 |   0.356448E-12 |   0.100000E-12
  52 |   0.241667E+00 |   0.219550E-14 |   0.530579E-15 |   0.283405E-09 |   0.138791E-12 |   0.100000E-12
  53 |   0.264172E+00 |   0.648344E-15 |   0.171275E-15 |   0.210823E-09 |   0.768030E-13 |   0.100000E-12

 Charges are converged, EXIT

%%%% DENSITY %%%%%%%%%%%%%%%%%%%%%%%%%%%%%%%%%%%%%%%%%%%%%%%%%%%%%%%%%%%%%%%%%%%

 density label              = velectrostatic                                    

 integral of density        =  -0.1793462498E-12

%%%% CHARGES %%%%%%%%%%%%%%%%%%%%%%%%%%%%%%%%%%%%%%%%%%%%%%%%%%%%%%%%%%%%%%%%%%%

 total number of charges    =             11

 total charge               =      0.0000000

%%%% DENSITY %%%%%%%%%%%%%%%%%%%%%%%%%%%%%%%%%%%%%%%%%%%%%%%%%%%%%%%%%%%%%%%%%%%

 density label              = vsoftcavity                                       

 integral of density        =    12.36695131    

%%%% DENSITY %%%%%%%%%%%%%%%%%%%%%%%%%%%%%%%%%%%%%%%%%%%%%%%%%%%%%%%%%%%%%%%%%%%

 density label              = dvtot                                             

 integral of density        =    12.36695131    

%%%% ELECTRONS %%%%%%%%%%%%%%%%%%%%%%%%%%%%%%%%%%%%%%%%%%%%%%%%%%%%%%%%%%%%%%%%%

 number of electrons        =              8

 total electronic charge    =      8.0000000

%%%% ELECTRONS %%%%%%%%%%%%%%%%%%%%%%%%%%%%%%%%%%%%%%%%%%%%%%%%%%%%%%%%%%%%%%%%%

 number of electrons        =              8

 total electronic charge    =      8.0000000

%%%% CHARGES %%%%%%%%%%%%%%%%%%%%%%%%%%%%%%%%%%%%%%%%%%%%%%%%%%%%%%%%%%%%%%%%%%%

 total number of charges    =             11

 total charge               =      0.0000000

%%%% CHARGES %%%%%%%%%%%%%%%%%%%%%%%%%%%%%%%%%%%%%%%%%%%%%%%%%%%%%%%%%%%%%%%%%%%

 total number of charges    =             11

 total charge               =      0.0000000

%%%% BOUNDARY %%%%%%%%%%%%%%%%%%%%%%%%%%%%%%%%%%%%%%%%%%%%%%%%%%%%%%%%%%%%%%%%%%

 boundary label             = solvent             
 boundary mode              = electronic          

 boundary is built as a type-1 function of a smooth density

 using the optimal SCCS function:
 rhomax                     =      0.0050000
 rhomin                     =      0.0001000

 volume of the QM region    =    230.8449073

 surface of the QM region   =    181.1222704

%%%% DENSITY %%%%%%%%%%%%%%%%%%%%%%%%%%%%%%%%%%%%%%%%%%%%%%%%%%%%%%%%%%%%%%%%%%%

 density label              = vreference                                        

 integral of density        =   0.4131674426E-13

%%%% COMPUTE ELECTROSTATIC POTENTIAL %%%%%%%%%%%%%%%%%%%%%%%%%%%%%%%%%%%%%%%%%%%

 Warning: Bad guess with residual norm =   0.235094E+03, reset to no guess

   i |      alpha     |       pAp      |      rzold     |    delta_qm    |    delta_en    |       tol
 ---------------------------------------------------------------------------------------------------------
   1 |   0.983703E+00 |   0.289135E+02 |   0.284423E+02 |   0.114924E-01 |   0.228227E+03 |   0.100000E-12
   2 |   0.116583E+00 |   0.263808E+02 |   0.307556E+01 |   0.267457E-02 |   0.123609E+02 |   0.100000E-12
   3 |   0.150815E+00 |   0.132328E+01 |   0.199569E+00 |   0.843455E-03 |   0.122933E+01 |   0.100000E-12
   4 |   0.124986E+00 |   0.174672E+00 |   0.218315E-01 |   0.557220E-03 |   0.536534E+00 |   0.100000E-12
   5 |   0.278982E+00 |   0.648743E-02 |   0.180988E-02 |   0.358402E-03 |   0.221964E+00 |   0.100000E-12
   6 |   0.420104E+00 |   0.154811E-02 |   0.650367E-03 |   0.280598E-03 |   0.136054E+00 |   0.100000E-12
   7 |   0.320246E+00 |   0.949131E-03 |   0.303955E-03 |   0.308066E-03 |   0.163995E+00 |   0.100000E-12
   8 |   0.165481E+01 |   0.728601E-04 |   0.120569E-03 |   0.276887E-03 |   0.132479E+00 |   0.100000E-12
   9 |   0.749380E+00 |   0.601817E-03 |   0.450990E-03 |   0.245562E-03 |   0.104199E+00 |   0.100000E-12
  10 |   0.221236E+00 |   0.120009E-02 |   0.265505E-03 |   0.220372E-03 |   0.839185E-01 |   0.100000E-12
  11 |   0.267133E+00 |   0.399504E-03 |   0.106721E-03 |   0.182883E-03 |   0.577953E-01 |   0.100000E-12
  12 |   0.478328E+00 |   0.135557E-03 |   0.648408E-04 |   0.141112E-03 |   0.344089E-01 |   0.100000E-12
  13 |   0.576971E+00 |   0.859158E-04 |   0.495709E-04 |   0.130482E-03 |   0.294202E-01 |   0.100000E-12
  14 |   0.620662E+00 |   0.848652E-04 |   0.526726E-04 |   0.136223E-03 |   0.320661E-01 |   0.100000E-12
  15 |   0.575819E+00 |   0.919130E-04 |   0.529253E-04 |   0.104641E-03 |   0.189212E-01 |   0.100000E-12
  16 |   0.407817E+00 |   0.136095E-03 |   0.555019E-04 |   0.932885E-04 |   0.150383E-01 |   0.100000E-12
  17 |   0.433339E+00 |   0.383951E-04 |   0.166381E-04 |   0.880335E-04 |   0.133918E-01 |   0.100000E-12
  18 |   0.147118E+01 |   0.914888E-05 |   0.134596E-04 |   0.967231E-04 |   0.161661E-01 |   0.100000E-12
  19 |   0.969664E+00 |   0.365353E-04 |   0.354269E-04 |   0.102427E-03 |   0.181288E-01 |   0.100000E-12
  20 |   0.499392E+00 |   0.567883E-04 |   0.283596E-04 |   0.952463E-04 |   0.156762E-01 |   0.100000E-12
  21 |   0.589125E+00 |   0.237944E-04 |   0.140179E-04 |   0.671542E-04 |   0.779275E-02 |   0.100000E-12
  22 |   0.440785E+00 |   0.206570E-04 |   0.910530E-05 |   0.518798E-04 |   0.465093E-02 |   0.100000E-12
  23 |   0.285413E+00 |   0.391796E-04 |   0.111823E-04 |   0.432101E-04 |   0.322637E-02 |   0.100000E-12
  24 |   0.362314E+00 |   0.163154E-04 |   0.591129E-05 |   0.339542E-04 |   0.199219E-02 |   0.100000E-12
  25 |   0.490492E+00 |   0.550812E-05 |   0.270169E-05 |   0.197105E-04 |   0.671333E-03 |   0.100000E-12
  26 |   0.510398E+00 |   0.103076E-05 |   0.526098E-06 |   0.117047E-04 |   0.236735E-03 |   0.100000E-12
  27 |   0.273611E+00 |   0.671580E-06 |   0.183752E-06 |   0.801481E-05 |   0.111002E-03 |   0.100000E-12
  28 |   0.204661E+00 |   0.939095E-06 |   0.192196E-06 |   0.507074E-05 |   0.444310E-04 |   0.100000E-12
  29 |   0.403831E+00 |   0.111084E-06 |   0.448592E-07 |   0.271359E-05 |   0.127242E-04 |   0.100000E-12
  30 |   0.583237E+00 |   0.177530E-07 |   0.103542E-07 |   0.119155E-05 |   0.245338E-05 |   0.100000E-12
  31 |   0.616104E+00 |   0.341791E-08 |   0.210579E-08 |   0.713968E-06 |   0.880848E-06 |   0.100000E-12
  32 |   0.550158E+00 |   0.168645E-08 |   0.927817E-09 |   0.511950E-06 |   0.452896E-06 |   0.100000E-12
  33 |   0.663759E+00 |   0.387219E-09 |   0.257020E-09 |   0.272297E-06 |   0.128124E-06 |   0.100000E-12
  34 |   0.228444E+00 |   0.971657E-09 |   0.221969E-09 |   0.195238E-06 |   0.658675E-07 |   0.100000E-12
  35 |   0.339688E+00 |   0.377874E-09 |   0.128359E-09 |   0.134196E-06 |   0.311189E-07 |   0.100000E-12
  36 |   0.504405E+00 |   0.805025E-10 |   0.406059E-10 |   0.122830E-06 |   0.260706E-07 |   0.100000E-12
  37 |   0.125040E+01 |   0.126053E-10 |   0.157618E-10 |   0.722118E-07 |   0.901072E-08 |   0.100000E-12
  38 |   0.426621E+00 |   0.350338E-10 |   0.149462E-10 |   0.464006E-07 |   0.372041E-08 |   0.100000E-12
  39 |   0.289094E+00 |   0.253147E-10 |   0.731831E-11 |   0.310813E-07 |   0.166933E-08 |   0.100000E-12
  40 |   0.258398E+00 |   0.502787E-11 |   0.129919E-11 |   0.253836E-07 |   0.111340E-08 |   0.100000E-12
  41 |   0.265594E+00 |   0.360214E-11 |   0.956706E-12 |   0.145663E-07 |   0.366640E-09 |   0.100000E-12
  42 |   0.721194E+00 |   0.294941E-12 |   0.212710E-12 |   0.783708E-08 |   0.106133E-09 |   0.100000E-12
  43 |   0.707013E+00 |   0.175269E-12 |   0.123918E-12 |   0.948801E-08 |   0.155559E-09 |   0.100000E-12
  44 |   0.846856E+00 |   0.121772E-12 |   0.103123E-12 |   0.101363E-07 |   0.177543E-09 |   0.100000E-12
  45 |   0.714954E+00 |   0.192432E-12 |   0.137580E-12 |   0.871974E-08 |   0.131387E-09 |   0.100000E-12
  46 |   0.504651E+00 |   0.263716E-12 |   0.133085E-12 |   0.660331E-08 |   0.753471E-10 |   0.100000E-12
  47 |   0.356371E+00 |   0.238798E-12 |   0.851007E-13 |   0.451362E-08 |   0.352041E-10 |   0.100000E-12
  48 |   0.179997E+00 |   0.238369E-12 |   0.429058E-13 |   0.341240E-08 |   0.201216E-10 |   0.100000E-12
  49 |   0.273666E+00 |   0.884872E-13 |   0.242160E-13 |   0.173118E-08 |   0.517877E-11 |   0.100000E-12
  50 |   0.513535E+00 |   0.631553E-14 |   0.324324E-14 |   0.705475E-09 |   0.860016E-12 |   0.100000E-12
  51 |   0.712185E+00 |   0.612705E-15 |   0.436359E-15 |   0.313049E-09 |   0.169344E-12 |   0.100000E-12
  52 |   0.281242E+00 |   0.589525E-15 |   0.165799E-15 |   0.238734E-09 |   0.984857E-13 |   0.100000E-12

 Charges are converged, EXIT

%%%% DENSITY %%%%%%%%%%%%%%%%%%%%%%%%%%%%%%%%%%%%%%%%%%%%%%%%%%%%%%%%%%%%%%%%%%%

 density label              = velectrostatic                                    

 integral of density        =   0.3750086661E-14

%%%% CHARGES %%%%%%%%%%%%%%%%%%%%%%%%%%%%%%%%%%%%%%%%%%%%%%%%%%%%%%%%%%%%%%%%%%%

 total number of charges    =             11

 total charge               =      0.0000000

%%%% DENSITY %%%%%%%%%%%%%%%%%%%%%%%%%%%%%%%%%%%%%%%%%%%%%%%%%%%%%%%%%%%%%%%%%%%

 density label              = vsoftcavity                                       

 integral of density        =    12.37175448    

%%%% DENSITY %%%%%%%%%%%%%%%%%%%%%%%%%%%%%%%%%%%%%%%%%%%%%%%%%%%%%%%%%%%%%%%%%%%

 density label              = dvtot                                             

 integral of density        =    12.37175448    

%%%% ELECTRONS %%%%%%%%%%%%%%%%%%%%%%%%%%%%%%%%%%%%%%%%%%%%%%%%%%%%%%%%%%%%%%%%%

 number of electrons        =              8

 total electronic charge    =      8.0000000

%%%% ELECTRONS %%%%%%%%%%%%%%%%%%%%%%%%%%%%%%%%%%%%%%%%%%%%%%%%%%%%%%%%%%%%%%%%%

 number of electrons        =              8

 total electronic charge    =      8.0000000

%%%% CHARGES %%%%%%%%%%%%%%%%%%%%%%%%%%%%%%%%%%%%%%%%%%%%%%%%%%%%%%%%%%%%%%%%%%%

 total number of charges    =             11

 total charge               =      0.0000000

%%%% CHARGES %%%%%%%%%%%%%%%%%%%%%%%%%%%%%%%%%%%%%%%%%%%%%%%%%%%%%%%%%%%%%%%%%%%

 total number of charges    =             11

 total charge               =      0.0000000

%%%% BOUNDARY %%%%%%%%%%%%%%%%%%%%%%%%%%%%%%%%%%%%%%%%%%%%%%%%%%%%%%%%%%%%%%%%%%

 boundary label             = solvent             
 boundary mode              = electronic          

 boundary is built as a type-1 function of a smooth density

 using the optimal SCCS function:
 rhomax                     =      0.0050000
 rhomin                     =      0.0001000

 volume of the QM region    =    230.8449073

 surface of the QM region   =    181.1222704

%%%% DENSITY %%%%%%%%%%%%%%%%%%%%%%%%%%%%%%%%%%%%%%%%%%%%%%%%%%%%%%%%%%%%%%%%%%%

 density label              = dvtot                                             

 integral of density        =    12.37175448    

%%%% DENSITY %%%%%%%%%%%%%%%%%%%%%%%%%%%%%%%%%%%%%%%%%%%%%%%%%%%%%%%%%%%%%%%%%%%

 density label              = vreference                                        

 integral of density        =   0.4131674426E-13

%%%% DENSITY %%%%%%%%%%%%%%%%%%%%%%%%%%%%%%%%%%%%%%%%%%%%%%%%%%%%%%%%%%%%%%%%%%%

 density label              = velectrostatic                                    

 integral of density        =   0.3750086661E-14

%%%% CHARGES %%%%%%%%%%%%%%%%%%%%%%%%%%%%%%%%%%%%%%%%%%%%%%%%%%%%%%%%%%%%%%%%%%%

 total number of charges    =             11

 total charge               =      0.0000000

%%%% DENSITY %%%%%%%%%%%%%%%%%%%%%%%%%%%%%%%%%%%%%%%%%%%%%%%%%%%%%%%%%%%%%%%%%%%

 density label              = vsoftcavity                                       

 integral of density        =    12.37175448    
