
     Program PWSCF v.7.0 starts on 22Apr2022 at 20:41:10 

     This program is part of the open-source Quantum ESPRESSO suite
     for quantum simulation of materials; please cite
         "P. Giannozzi et al., J. Phys.:Condens. Matter 21 395502 (2009);
         "P. Giannozzi et al., J. Phys.:Condens. Matter 29 465901 (2017);
         "P. Giannozzi et al., J. Chem. Phys. 152 154105 (2020);
          URL http://www.quantum-espresso.org", 
     in publications or presentations arising from this work. More details at
     http://www.quantum-espresso.org/quote

     Parallel version (MPI), running on     1 processors

     MPI processes distributed on     1 nodes
     22849 MiB available memory on the printing compute node when the environment starts
 
     Reading input from pw.in

     Current dimensions of program PWSCF are:
     Max number of different atomic species (ntypx) = 10
     Max number of k-points (npk) =  40000
     Max angular momentum in pseudopotentials (lmaxx) =  4
 
     Reading input from environ.in:
     * using electronic solvent mode
     * setting boundary derivatives method to SCCS default
     
     file H.pbe-rrkjus.UPF: wavefunction(s)  1S renormalized
     file O.pbe-rrkjus.UPF: wavefunction(s)  2S renormalized

     gamma-point specific algorithms are used

     Subspace diagonalization in iterative solution of the eigenvalue problem:
     a serial algorithm will be used

 
     G-vector sticks info
     --------------------
     sticks:   dense  smooth     PW     G-vecs:    dense   smooth      PW
     Sum        9549    3809    949               701475   177509   22119
 
     Using Slab Decomposition
 


     bravais-lattice index     =            1
     lattice parameter (alat)  =      20.0000  a.u.
     unit-cell volume          =    8000.0000 (a.u.)^3
     number of atoms/cell      =            3
     number of atomic types    =            2
     number of electrons       =         8.00
     number of Kohn-Sham states=            4
     kinetic-energy cutoff     =      30.0000  Ry
     charge density cutoff     =     300.0000  Ry
     scf convergence threshold =      1.0E-08
     mixing beta               =       0.3000
     number of iterations used =            8  plain     mixing
     Exchange-correlation= SLA  PW   PBE  PBE
                           (   1   4   3   4   0   0   0)

     ================================================================================
 
                                  Environ Setup Summary

     ================================================================================
 
     Please cite

          O. Andreussi, I. Dabo and N. Marzari, J. Chem. Phys. 136, 064102 (2012)

     in publications or presentations arising from this work.

     ================================================================================
 
     Parameters
     ==========

     compensation onset threshold      =               0.1000E+03

     Solvent Boundary
     ================

     solvent mode                      =               electronic
     derivatives method                =                    chain
     numerical core for derivatives    =                      fft
     switching function adopted        =                     SCCS
     density limit for vacuum region   =               0.5000E-02
     density limit for bulk solvent    =               0.1000E-03

     Electrostatic Setup
     ===================

     electrostatic problem to solve    =              generalized
     numerical solver adopted          =                       cg
     type of auxiliary density adopted =                     none
     numerical core for poisson        =                      fft

     ================================================================================
 

     celldm(1)=  20.000000  celldm(2)=   0.000000  celldm(3)=   0.000000
     celldm(4)=   0.000000  celldm(5)=   0.000000  celldm(6)=   0.000000

     crystal axes: (cart. coord. in units of alat)
               a(1) = (   1.000000   0.000000   0.000000 )  
               a(2) = (   0.000000   1.000000   0.000000 )  
               a(3) = (   0.000000   0.000000   1.000000 )  

     reciprocal axes: (cart. coord. in units 2 pi/alat)
               b(1) = (  1.000000  0.000000  0.000000 )  
               b(2) = (  0.000000  1.000000  0.000000 )  
               b(3) = (  0.000000  0.000000  1.000000 )  


     PseudoPot. # 1 for H  read from file:
     MD5 check sum: 2d52a7f45632fd764c17cc6affed14c8
     Pseudo is Ultrasoft, Zval =  1.0
     Generated by new atomic code, or converted to UPF format
     Using radial grid of 1061 points,  2 beta functions with: 
                l(1) =   0
                l(2) =   0
     Q(r) pseudized with 0 coefficients 


     PseudoPot. # 2 for O  read from file:
     MD5 check sum: fadcf19ee70a498d3030e2e79cf929a4
     Pseudo is Ultrasoft, Zval =  6.0
     Generated by new atomic code, or converted to UPF format
     Using radial grid of 1269 points,  4 beta functions with: 
                l(1) =   0
                l(2) =   0
                l(3) =   1
                l(4) =   1
     Q(r) pseudized with 0 coefficients 


     atomic species   valence    mass     pseudopotential
        H              1.00     1.00000     H ( 1.00)
        O              6.00    16.00000     O ( 1.00)

     No symmetry found



   Cartesian axes

     site n.     atom                  positions (alat units)
         1           O   tau(   1) = (   0.5895000   0.6025000   0.5750000  )
         2           H   tau(   2) = (   0.6725000   0.5610000   0.5750000  )
         3           H   tau(   3) = (   0.5280000   0.5330000   0.5750000  )

     number of k points=     1
                       cart. coord. in units 2pi/alat
        k(    1) = (   0.0000000   0.0000000   0.0000000), wk =   2.0000000

     Dense  grid:   350738 G-vectors     FFT dimensions: ( 120, 120, 120)

     Smooth grid:    88755 G-vectors     FFT dimensions: (  72,  72,  72)

     Estimated max dynamical RAM per process >     530.91 MB

     Initial potential from superposition of free atoms

     starting charge       7.8076, renormalised to       8.0000

     negative rho (up, down):  7.936E-04 0.000E+00
     Starting wfcs are    6 randomized atomic wfcs

     total cpu time spent up to now is        3.0 secs

     Self-consistent Calculation

     iteration #  1     ecut=    30.00 Ry     beta= 0.30
     Davidson diagonalization with overlap
     ethr =  1.00E-02,  avg # of iterations =  2.0

     negative rho (up, down):  5.566E-04 0.000E+00

     add environment contribution to local potential
     Polarization accuracy = 6.1E-16, # of iterations =  50

     total cpu time spent up to now is       10.9 secs

     total energy              =     -34.29681090 Ry
     estimated scf accuracy    <       0.67469661 Ry
     electrostatic embedding   =       0.00000000 Ry
     correction to one-el term =       0.00000000 Ry

     iteration #  2     ecut=    30.00 Ry     beta= 0.30
     Davidson diagonalization with overlap
     ethr =  8.43E-03,  avg # of iterations =  1.0

     negative rho (up, down):  6.506E-04 0.000E+00

     add environment contribution to local potential
     Polarization accuracy = 7.8E-16, # of iterations =  55

     total cpu time spent up to now is       17.8 secs

     total energy              =     -34.26803047 Ry
     estimated scf accuracy    <       0.15835280 Ry
     electrostatic embedding   =      -0.00606417 Ry
     correction to one-el term =      -0.19013483 Ry

     iteration #  3     ecut=    30.00 Ry     beta= 0.30
     Davidson diagonalization with overlap
     ethr =  1.98E-03,  avg # of iterations =  2.0

     negative rho (up, down):  1.716E-03 0.000E+00

     add environment contribution to local potential
     Polarization accuracy = 4.5E-16, # of iterations =  55

     total cpu time spent up to now is       24.9 secs

     total energy              =     -34.26426933 Ry
     estimated scf accuracy    <       0.04187192 Ry
     electrostatic embedding   =      -0.00329691 Ry
     correction to one-el term =      -0.11516092 Ry

     iteration #  4     ecut=    30.00 Ry     beta= 0.30
     Davidson diagonalization with overlap
     ethr =  5.23E-04,  avg # of iterations =  2.0

     negative rho (up, down):  1.614E-03 0.000E+00

     add environment contribution to local potential
     Polarization accuracy = 8.9E-16, # of iterations =  57

     total cpu time spent up to now is       32.1 secs

     total energy              =     -34.26870336 Ry
     estimated scf accuracy    <       0.00813941 Ry
     electrostatic embedding   =      -0.00076650 Ry
     correction to one-el term =      -0.07281363 Ry

     iteration #  5     ecut=    30.00 Ry     beta= 0.30
     Davidson diagonalization with overlap
     ethr =  1.02E-04,  avg # of iterations =  3.0

     negative rho (up, down):  1.252E-03 0.000E+00

     add environment contribution to local potential
     Polarization accuracy = 4.4E-16, # of iterations =  58

     total cpu time spent up to now is       41.1 secs

     total energy              =     -34.28529914 Ry
     estimated scf accuracy    <       0.00246449 Ry
     electrostatic embedding   =       0.00175891 Ry
     correction to one-el term =      -0.19951786 Ry

     iteration #  6     ecut=    30.00 Ry     beta= 0.30
     Davidson diagonalization with overlap
     ethr =  3.08E-05,  avg # of iterations =  2.0

     negative rho (up, down):  8.460E-04 0.000E+00

     add environment contribution to local potential
     Polarization accuracy = 6.3E-16, # of iterations =  58

     total cpu time spent up to now is       48.5 secs

     total energy              =     -34.28720642 Ry
     estimated scf accuracy    <       0.00237846 Ry
     electrostatic embedding   =       0.00196530 Ry
     correction to one-el term =      -0.21320136 Ry

     iteration #  7     ecut=    30.00 Ry     beta= 0.30
     Davidson diagonalization with overlap
     ethr =  2.97E-05,  avg # of iterations =  5.0

     negative rho (up, down):  5.787E-04 0.000E+00

     add environment contribution to local potential
     Polarization accuracy = 7.4E-16, # of iterations =  57

     total cpu time spent up to now is       55.8 secs

     total energy              =     -34.28871845 Ry
     estimated scf accuracy    <       0.00079739 Ry
     electrostatic embedding   =      -0.00735269 Ry
     correction to one-el term =       0.23039149 Ry

     iteration #  8     ecut=    30.00 Ry     beta= 0.30
     Davidson diagonalization with overlap
     ethr =  9.97E-06,  avg # of iterations =  4.0

     negative rho (up, down):  2.634E-04 0.000E+00

     add environment contribution to local potential
     Polarization accuracy = 7.7E-16, # of iterations =  57

     total cpu time spent up to now is       63.1 secs

     total energy              =     -34.27323042 Ry
     estimated scf accuracy    <       0.00070393 Ry
     electrostatic embedding   =      -0.00524707 Ry
     correction to one-el term =       0.15851932 Ry

     iteration #  9     ecut=    30.00 Ry     beta= 0.30
     Davidson diagonalization with overlap
     ethr =  8.80E-06,  avg # of iterations =  3.0

     negative rho (up, down):  2.483E-04 0.000E+00

     add environment contribution to local potential
     Polarization accuracy = 9.5E-16, # of iterations =  57

     total cpu time spent up to now is       71.9 secs

     total energy              =     -34.27072569 Ry
     estimated scf accuracy    <       0.00096734 Ry
     electrostatic embedding   =      -0.00368209 Ry
     correction to one-el term =       0.09224330 Ry

     iteration # 10     ecut=    30.00 Ry     beta= 0.30
     Davidson diagonalization with overlap
     ethr =  8.80E-06,  avg # of iterations =  3.0

     negative rho (up, down):  1.952E-04 0.000E+00

     add environment contribution to local potential
     Polarization accuracy = 5.5E-16, # of iterations =  58

     total cpu time spent up to now is       79.4 secs

     total energy              =     -34.27140124 Ry
     estimated scf accuracy    <       0.00043482 Ry
     electrostatic embedding   =      -0.00442546 Ry
     correction to one-el term =       0.12848779 Ry

     iteration # 11     ecut=    30.00 Ry     beta= 0.30
     Davidson diagonalization with overlap
     ethr =  5.44E-06,  avg # of iterations =  2.0

     negative rho (up, down):  1.901E-04 0.000E+00

     add environment contribution to local potential
     Polarization accuracy = 4.8E-16, # of iterations =  58

     total cpu time spent up to now is       86.8 secs

     total energy              =     -34.27206733 Ry
     estimated scf accuracy    <       0.00033917 Ry
     electrostatic embedding   =      -0.00466150 Ry
     correction to one-el term =       0.14063585 Ry

     iteration # 12     ecut=    30.00 Ry     beta= 0.30
     Davidson diagonalization with overlap
     ethr =  4.24E-06,  avg # of iterations =  3.0

     negative rho (up, down):  2.088E-04 0.000E+00

     add environment contribution to local potential
     Polarization accuracy = 6.0E-16, # of iterations =  58

     total cpu time spent up to now is       94.3 secs

     total energy              =     -34.27081013 Ry
     estimated scf accuracy    <       0.00035022 Ry
     electrostatic embedding   =      -0.00410394 Ry
     correction to one-el term =       0.11719024 Ry

     iteration # 13     ecut=    30.00 Ry     beta= 0.30
     Davidson diagonalization with overlap
     ethr =  4.24E-06,  avg # of iterations =  2.0

     negative rho (up, down):  3.066E-04 0.000E+00

     add environment contribution to local potential
     Polarization accuracy = 9.8E-16, # of iterations =  58

     total cpu time spent up to now is      102.9 secs

     total energy              =     -34.27086080 Ry
     estimated scf accuracy    <       0.00034334 Ry
     electrostatic embedding   =      -0.00416054 Ry
     correction to one-el term =       0.12216979 Ry

     iteration # 14     ecut=    30.00 Ry     beta= 0.30
     Davidson diagonalization with overlap
     ethr =  4.24E-06,  avg # of iterations =  3.0

     negative rho (up, down):  2.148E-04 0.000E+00

     add environment contribution to local potential
     Polarization accuracy = 2.2E-16, # of iterations =  59

     total cpu time spent up to now is      110.3 secs

     total energy              =     -34.27097872 Ry
     estimated scf accuracy    <       0.00070390 Ry
     electrostatic embedding   =      -0.00425477 Ry
     correction to one-el term =       0.13535012 Ry

     iteration # 15     ecut=    30.00 Ry     beta= 0.30
     Davidson diagonalization with overlap
     ethr =  4.24E-06,  avg # of iterations =  3.0

     negative rho (up, down):  4.107E-04 0.000E+00

     add environment contribution to local potential
     Polarization accuracy = 5.4E-16, # of iterations =  59

     total cpu time spent up to now is      117.6 secs

     total energy              =     -34.27606972 Ry
     estimated scf accuracy    <       0.00067521 Ry
     electrostatic embedding   =      -0.00547215 Ry
     correction to one-el term =       0.17374774 Ry

     iteration # 16     ecut=    30.00 Ry     beta= 0.30
     Davidson diagonalization with overlap
     ethr =  4.24E-06,  avg # of iterations =  3.0

     negative rho (up, down):  2.927E-04 0.000E+00

     add environment contribution to local potential
     Polarization accuracy = 4.7E-16, # of iterations =  59

     total cpu time spent up to now is      124.9 secs

     total energy              =     -34.27168171 Ry
     estimated scf accuracy    <       0.00020564 Ry
     electrostatic embedding   =      -0.00513175 Ry
     correction to one-el term =       0.14257342 Ry

     iteration # 17     ecut=    30.00 Ry     beta= 0.30
     Davidson diagonalization with overlap
     ethr =  2.57E-06,  avg # of iterations =  3.0

     negative rho (up, down):  2.626E-04 0.000E+00

     add environment contribution to local potential
     Polarization accuracy = 2.7E-16, # of iterations =  59

     total cpu time spent up to now is      133.4 secs

     total energy              =     -34.27518894 Ry
     estimated scf accuracy    <       0.00036098 Ry
     electrostatic embedding   =      -0.00655489 Ry
     correction to one-el term =       0.18724197 Ry

     iteration # 18     ecut=    30.00 Ry     beta= 0.30
     Davidson diagonalization with overlap
     ethr =  2.57E-06,  avg # of iterations =  3.0

     negative rho (up, down):  2.456E-04 0.000E+00

     add environment contribution to local potential
     Polarization accuracy = 4.5E-16, # of iterations =  58

     total cpu time spent up to now is      140.7 secs

     total energy              =     -34.27240611 Ry
     estimated scf accuracy    <       0.00005715 Ry
     electrostatic embedding   =      -0.00589151 Ry
     correction to one-el term =       0.17335223 Ry

     iteration # 19     ecut=    30.00 Ry     beta= 0.30
     Davidson diagonalization with overlap
     ethr =  7.14E-07,  avg # of iterations =  2.0

     negative rho (up, down):  2.215E-04 0.000E+00

     add environment contribution to local potential
     Polarization accuracy = 5.2E-16, # of iterations =  58

     total cpu time spent up to now is      148.0 secs

     total energy              =     -34.27179629 Ry
     estimated scf accuracy    <       0.00001621 Ry
     electrostatic embedding   =      -0.00565949 Ry
     correction to one-el term =       0.16978330 Ry

     iteration # 20     ecut=    30.00 Ry     beta= 0.30
     Davidson diagonalization with overlap
     ethr =  2.03E-07,  avg # of iterations =  4.0

     negative rho (up, down):  2.147E-04 0.000E+00

     add environment contribution to local potential
     Polarization accuracy = 5.8E-16, # of iterations =  58

     total cpu time spent up to now is      155.4 secs

     total energy              =     -34.27029769 Ry
     estimated scf accuracy    <       0.00000045 Ry
     electrostatic embedding   =      -0.00507824 Ry
     correction to one-el term =       0.15725620 Ry

     iteration # 21     ecut=    30.00 Ry     beta= 0.30
     Davidson diagonalization with overlap
     ethr =  5.68E-09,  avg # of iterations =  4.0

     negative rho (up, down):  2.112E-04 0.000E+00

     add environment contribution to local potential
     Polarization accuracy = 6.0E-16, # of iterations =  58

     total cpu time spent up to now is      164.0 secs

     total energy              =     -34.27010028 Ry
     estimated scf accuracy    <       0.00000237 Ry
     electrostatic embedding   =      -0.00499208 Ry
     correction to one-el term =       0.15524950 Ry

     iteration # 22     ecut=    30.00 Ry     beta= 0.30
     Davidson diagonalization with overlap
     ethr =  5.68E-09,  avg # of iterations =  3.0

     negative rho (up, down):  2.178E-04 0.000E+00

     add environment contribution to local potential
     Polarization accuracy = 5.7E-16, # of iterations =  58

     total cpu time spent up to now is      171.5 secs

     total energy              =     -34.27005591 Ry
     estimated scf accuracy    <       0.00000046 Ry
     electrostatic embedding   =      -0.00496277 Ry
     correction to one-el term =       0.15492537 Ry

     iteration # 23     ecut=    30.00 Ry     beta= 0.30
     Davidson diagonalization with overlap
     ethr =  5.68E-09,  avg # of iterations =  4.0

     negative rho (up, down):  2.269E-04 0.000E+00

     add environment contribution to local potential
     Polarization accuracy = 5.5E-16, # of iterations =  58

     total cpu time spent up to now is      178.9 secs

     total energy              =     -34.26996565 Ry
     estimated scf accuracy    <       0.00000007 Ry
     electrostatic embedding   =      -0.00492594 Ry
     correction to one-el term =       0.15444798 Ry

     iteration # 24     ecut=    30.00 Ry     beta= 0.30
     Davidson diagonalization with overlap
     ethr =  8.16E-10,  avg # of iterations =  4.0

     negative rho (up, down):  2.226E-04 0.000E+00

     add environment contribution to local potential
     Polarization accuracy = 9.0E-16, # of iterations =  57

     total cpu time spent up to now is      186.3 secs

     total energy              =     -34.26973216 Ry
     estimated scf accuracy    <       0.00000018 Ry
     electrostatic embedding   =      -0.00484687 Ry
     correction to one-el term =       0.15273491 Ry

     iteration # 25     ecut=    30.00 Ry     beta= 0.30
     Davidson diagonalization with overlap
     ethr =  8.16E-10,  avg # of iterations =  4.0

     negative rho (up, down):  2.223E-04 0.000E+00

     add environment contribution to local potential
     Polarization accuracy = 5.3E-16, # of iterations =  58

     total cpu time spent up to now is      194.9 secs

     total energy              =     -34.26985113 Ry
     estimated scf accuracy    <       0.00000001 Ry
     electrostatic embedding   =      -0.00488615 Ry
     correction to one-el term =       0.15369698 Ry

     iteration # 26     ecut=    30.00 Ry     beta= 0.30
     Davidson diagonalization with overlap
     ethr =  1.40E-10,  avg # of iterations =  4.0

     negative rho (up, down):  2.193E-04 0.000E+00

     the potential shift due to the Gaussian-smeared nuclei is    -0.0214 ev

     total cpu time spent up to now is      196.2 secs

     End of self-consistent calculation

          k = 0.0000 0.0000 0.0000 ( 11060 PWs)   bands (ev):

   -25.1860 -13.0567  -9.2233  -7.1958

     highest occupied level (ev):    -7.1958

!    total energy              =     -34.26979066 Ry
     estimated scf accuracy    <          2.8E-09 Ry

     The total energy is the sum of the following terms:
     one-electron contribution =     -64.00562465 Ry
     hartree contribution      =      33.43191862 Ry
     xc contribution           =      -8.40159763 Ry
     ewald contribution        =       4.55735774 Ry
     electrostatic embedding   =      -0.00486211 Ry
     correction to one-el term =       0.15301736 Ry

     convergence has been achieved in  26 iterations

     Forces acting on atoms (cartesian axes, Ry/au):

     atom    1 type  2   force =     0.01011514   -0.05246013   -0.08982773
     atom    2 type  1   force =    -0.02598335    0.02213680    0.04491489
     atom    3 type  1   force =     0.01586820    0.03032333    0.04491284

     Total force =     0.131508     Total SCF correction =     0.000059

 
     init_run     :      2.64s CPU      2.93s WALL (       1 calls)
     electrons    :    182.84s CPU    193.25s WALL (       1 calls)
     forces       :      0.32s CPU      0.37s WALL (       1 calls)

     Called by init_run:
     wfcinit      :      0.04s CPU      0.04s WALL (       1 calls)
     potinit      :      1.16s CPU      1.25s WALL (       1 calls)
     hinit0       :      1.12s CPU      1.14s WALL (       1 calls)

     Called by electrons:
     c_bands      :      1.69s CPU      1.72s WALL (      26 calls)
     sum_band     :      4.47s CPU      5.55s WALL (      26 calls)
     v_of_rho     :      8.32s CPU      9.44s WALL (      27 calls)
     newd         :      2.73s CPU      3.41s WALL (      27 calls)
     mix_rho      :      1.51s CPU      1.51s WALL (      26 calls)

     Called by c_bands:
     init_us_2    :      0.07s CPU      0.07s WALL (      53 calls)
     init_us_2:cp :      0.07s CPU      0.07s WALL (      53 calls)
     regterg      :      1.60s CPU      1.62s WALL (      26 calls)

     Called by *egterg:
     rdiaghg      :      0.01s CPU      0.01s WALL (     104 calls)
     h_psi        :      1.51s CPU      1.54s WALL (     105 calls)
     s_psi        :      0.01s CPU      0.01s WALL (     105 calls)
     g_psi        :      0.01s CPU      0.01s WALL (      78 calls)

     Called by h_psi:
     h_psi:calbec :      0.02s CPU      0.02s WALL (     105 calls)
     vloc_psi     :      1.47s CPU      1.49s WALL (     105 calls)
     add_vuspsi   :      0.02s CPU      0.02s WALL (     105 calls)

     General routines
     calbec       :      0.03s CPU      0.03s WALL (     135 calls)
     fft          :      4.45s CPU      4.50s WALL (     297 calls)
     ffts         :      0.14s CPU      0.14s WALL (      53 calls)
     fftw         :      1.19s CPU      1.21s WALL (     426 calls)
     interpolate  :      0.61s CPU      0.61s WALL (      27 calls)
 
     Parallel routines
 
     Environ routines
 
     PWSCF        :   3m 5.85s CPU   3m16.61s WALL

 
   This run was terminated on:  20:44:27  22Apr2022            

=------------------------------------------------------------------------------=
   JOB DONE.
=------------------------------------------------------------------------------=

%%%% CELL %%%%%%%%%%%%%%%%%%%%%%%%%%%%%%%%%%%%%%%%%%%%%%%%%%%%%%%%%%%%%%%%%%%%%%

 cell label                 = system         

 cell volume                =    8000.000000

%%%% IONS %%%%%%%%%%%%%%%%%%%%%%%%%%%%%%%%%%%%%%%%%%%%%%%%%%%%%%%%%%%%%%%%%%%%%%

 total charge               =     -8.0000000
 center of charge           =     11.8140581    11.9257928    11.5000000
 dipole                     =      0.0000000     0.0000000     0.0000000
 quadrupole (pc)            =     -4.2524404    -2.1929396    -0.0000000
 quadrupole (gauss)         =     -5.2524404    -3.1929396    -1.0000000

   i | type | coordinates
 -----------------------------------------------------------------------
   1 |    2 |                     11.7900000    12.0500000    11.5000000
   2 |    1 |                     13.4500000    11.2200000    11.5000000
   3 |    1 |                     10.5600000    10.6600000    11.5000000

%%%% SYSTEM %%%%%%%%%%%%%%%%%%%%%%%%%%%%%%%%%%%%%%%%%%%%%%%%%%%%%%%%%%%%%%%%%%%%

 system is built from all present ionic types

 system defined dimension   =              0
 system defined axis        =              3

 system center              =     11.8140581    11.9257928    11.5000000
 system width               =      1.7818230

%%%% IONS %%%%%%%%%%%%%%%%%%%%%%%%%%%%%%%%%%%%%%%%%%%%%%%%%%%%%%%%%%%%%%%%%%%%%%

 total charge               =     -8.0000000
 center of charge           =     11.8140581    11.9257928    11.5000000
 dipole                     =      0.0000000     0.0000000     0.0000000
 quadrupole (pc)            =     -4.2524404    -2.1929396    -0.0000000
 quadrupole (gauss)         =     -5.2524404    -3.1929396    -1.0000000

   i | type | coordinates
 -----------------------------------------------------------------------
   1 |    2 |                     11.7900000    12.0500000    11.5000000
   2 |    1 |                     13.4500000    11.2200000    11.5000000
   3 |    1 |                     10.5600000    10.6600000    11.5000000

%%%% SYSTEM %%%%%%%%%%%%%%%%%%%%%%%%%%%%%%%%%%%%%%%%%%%%%%%%%%%%%%%%%%%%%%%%%%%%

 system is built from all present ionic types

 system defined dimension   =              0
 system defined axis        =              3

 system center              =     11.8140581    11.9257928    11.5000000
 system width               =      1.7818230

%%%% CHARGES %%%%%%%%%%%%%%%%%%%%%%%%%%%%%%%%%%%%%%%%%%%%%%%%%%%%%%%%%%%%%%%%%%%

 total number of charges    =              3

 total charge               =     -8.0000000

%%%% CHARGES %%%%%%%%%%%%%%%%%%%%%%%%%%%%%%%%%%%%%%%%%%%%%%%%%%%%%%%%%%%%%%%%%%%

 total number of charges    =              3

 total charge               =     -8.0000000

%%%% CELL %%%%%%%%%%%%%%%%%%%%%%%%%%%%%%%%%%%%%%%%%%%%%%%%%%%%%%%%%%%%%%%%%%%%%%

 cell label                 = system         

 cell volume                =    8000.000000

%%%% DIELECTRIC %%%%%%%%%%%%%%%%%%%%%%%%%%%%%%%%%%%%%%%%%%%%%%%%%%%%%%%%%%%%%%%%%

 dielectric build in the presence of dielectric regions:
 environment bulk permitt.  =      1.0000000
 number of dielec. regions  =              1

 dielectric flags:
 need gradient              =              F
 need factor depend. sqrt   =              T

 total dielectric charge    =      0.0000000

%%%% ELECTRONS %%%%%%%%%%%%%%%%%%%%%%%%%%%%%%%%%%%%%%%%%%%%%%%%%%%%%%%%%%%%%%%%%

 number of electrons        =              8

 total electronic charge    =      8.0000000

%%%% ELECTRONS %%%%%%%%%%%%%%%%%%%%%%%%%%%%%%%%%%%%%%%%%%%%%%%%%%%%%%%%%%%%%%%%%

 number of electrons        =              8

 total electronic charge    =      8.0000000

%%%% CHARGES %%%%%%%%%%%%%%%%%%%%%%%%%%%%%%%%%%%%%%%%%%%%%%%%%%%%%%%%%%%%%%%%%%%

 total number of charges    =             11

 total charge               =     -0.0000000

%%%% CHARGES %%%%%%%%%%%%%%%%%%%%%%%%%%%%%%%%%%%%%%%%%%%%%%%%%%%%%%%%%%%%%%%%%%%

 total number of charges    =             11

 total charge               =     -0.0000000

%%%% BOUNDARY %%%%%%%%%%%%%%%%%%%%%%%%%%%%%%%%%%%%%%%%%%%%%%%%%%%%%%%%%%%%%%%%%%

 boundary label             = solvent             
 boundary mode              = electronic          

 using the optimal SCCS function:
 rhomax                     =      0.0050000
 rhomin                     =      0.0001000

 volume of the QM region    =    479.9702285

 surface of the QM region   =    281.4538971

%%%% DENSITY %%%%%%%%%%%%%%%%%%%%%%%%%%%%%%%%%%%%%%%%%%%%%%%%%%%%%%%%%%%%%%%%%%%

 density label              = dvtot                                             

 integral of density        =    0.000000000    

%%%% DENSITY %%%%%%%%%%%%%%%%%%%%%%%%%%%%%%%%%%%%%%%%%%%%%%%%%%%%%%%%%%%%%%%%%%%

 density label              = vreference                                        

 integral of density        =    0.000000000    

%%%% DENSITY %%%%%%%%%%%%%%%%%%%%%%%%%%%%%%%%%%%%%%%%%%%%%%%%%%%%%%%%%%%%%%%%%%%

 density label              = velectrostatic                                    

 integral of density        =    0.000000000    

%%%% CHARGES %%%%%%%%%%%%%%%%%%%%%%%%%%%%%%%%%%%%%%%%%%%%%%%%%%%%%%%%%%%%%%%%%%%

 total number of charges    =             11

 total charge               =     -0.0000000

%%%% DENSITY %%%%%%%%%%%%%%%%%%%%%%%%%%%%%%%%%%%%%%%%%%%%%%%%%%%%%%%%%%%%%%%%%%%

 density label              = vsoftcavity                                       

 integral of density        =    0.000000000    

%%%% ELECTRONS %%%%%%%%%%%%%%%%%%%%%%%%%%%%%%%%%%%%%%%%%%%%%%%%%%%%%%%%%%%%%%%%%

 number of electrons        =              8

 total electronic charge    =      8.0000000

%%%% ELECTRONS %%%%%%%%%%%%%%%%%%%%%%%%%%%%%%%%%%%%%%%%%%%%%%%%%%%%%%%%%%%%%%%%%

 number of electrons        =              8

 total electronic charge    =      8.0000000

%%%% CHARGES %%%%%%%%%%%%%%%%%%%%%%%%%%%%%%%%%%%%%%%%%%%%%%%%%%%%%%%%%%%%%%%%%%%

 total number of charges    =             11

 total charge               =      0.0000000

%%%% CHARGES %%%%%%%%%%%%%%%%%%%%%%%%%%%%%%%%%%%%%%%%%%%%%%%%%%%%%%%%%%%%%%%%%%%

 total number of charges    =             11

 total charge               =      0.0000000

%%%% BOUNDARY %%%%%%%%%%%%%%%%%%%%%%%%%%%%%%%%%%%%%%%%%%%%%%%%%%%%%%%%%%%%%%%%%%

 boundary label             = solvent             
 boundary mode              = electronic          

 using the optimal SCCS function:
 rhomax                     =      0.0050000
 rhomin                     =      0.0001000

 volume of the QM region    =    345.1756690

 surface of the QM region   =    230.1361651

%%%% DENSITY %%%%%%%%%%%%%%%%%%%%%%%%%%%%%%%%%%%%%%%%%%%%%%%%%%%%%%%%%%%%%%%%%%%

 density label              = vreference                                        

 integral of density        =  -0.2798090977E-12

%%%% COMPUTE ELECTROSTATIC POTENTIAL %%%%%%%%%%%%%%%%%%%%%%%%%%%%%%%%%%%%%%%%%%%

   i |      alpha     |       pAp      |      rzold     |    delta_qm    |    delta_en    |       tol
 ---------------------------------------------------------------------------------------------------------
   1 |   0.997211E+00 |   0.286885E+02 |   0.286085E+02 |   0.319491E-02 |   0.176385E+02 |   0.100000E-14
   2 |   0.147312E+00 |   0.264536E+01 |   0.389693E+00 |   0.920853E-03 |   0.146529E+01 |   0.100000E-14
   3 |   0.188448E+00 |   0.140567E+00 |   0.264896E-01 |   0.420966E-03 |   0.306222E+00 |   0.100000E-14
   4 |   0.222695E+00 |   0.183723E-01 |   0.409143E-02 |   0.377715E-03 |   0.246531E+00 |   0.100000E-14
   5 |   0.234833E+00 |   0.451842E-02 |   0.106108E-02 |   0.322859E-03 |   0.180124E+00 |   0.100000E-14
   6 |   0.435167E+00 |   0.100220E-02 |   0.436124E-03 |   0.275963E-03 |   0.131597E+00 |   0.100000E-14
   7 |   0.769612E+00 |   0.532079E-03 |   0.409495E-03 |   0.298859E-03 |   0.154339E+00 |   0.100000E-14
   8 |   0.510529E+00 |   0.141794E-02 |   0.723902E-03 |   0.278469E-03 |   0.133997E+00 |   0.100000E-14
   9 |   0.319104E+00 |   0.316308E-02 |   0.100935E-02 |   0.186399E-03 |   0.600389E-01 |   0.100000E-14
  10 |   0.411895E+00 |   0.857827E-03 |   0.353334E-03 |   0.157687E-03 |   0.429671E-01 |   0.100000E-14
  11 |   0.416144E+00 |   0.385806E-03 |   0.160551E-03 |   0.130413E-03 |   0.293892E-01 |   0.100000E-14
  12 |   0.603606E+00 |   0.153949E-03 |   0.929245E-04 |   0.125644E-03 |   0.272790E-01 |   0.100000E-14
  13 |   0.422593E+00 |   0.237285E-03 |   0.100275E-03 |   0.115538E-03 |   0.230670E-01 |   0.100000E-14
  14 |   0.326102E+00 |   0.333010E-03 |   0.108595E-03 |   0.918739E-04 |   0.145857E-01 |   0.100000E-14
  15 |   0.418356E+00 |   0.128084E-03 |   0.535846E-04 |   0.709066E-04 |   0.868795E-02 |   0.100000E-14
  16 |   0.405062E+00 |   0.635119E-04 |   0.257263E-04 |   0.554757E-04 |   0.531800E-02 |   0.100000E-14
  17 |   0.503556E+00 |   0.217112E-04 |   0.109328E-04 |   0.399580E-04 |   0.275899E-02 |   0.100000E-14
  18 |   0.427357E+00 |   0.155731E-04 |   0.665528E-05 |   0.248333E-04 |   0.106564E-02 |   0.100000E-14
  19 |   0.437482E+00 |   0.802234E-05 |   0.350963E-05 |   0.155258E-04 |   0.416536E-03 |   0.100000E-14
  20 |   0.373337E+00 |   0.343184E-05 |   0.128123E-05 |   0.120971E-04 |   0.252874E-03 |   0.100000E-14
  21 |   0.287075E+00 |   0.254311E-05 |   0.730063E-06 |   0.963770E-05 |   0.160506E-03 |   0.100000E-14
  22 |   0.345338E+00 |   0.104727E-05 |   0.361662E-06 |   0.708087E-05 |   0.866397E-04 |   0.100000E-14
  23 |   0.438898E+00 |   0.492751E-06 |   0.216267E-06 |   0.407831E-05 |   0.287411E-04 |   0.100000E-14
  24 |   0.488556E+00 |   0.162911E-06 |   0.795912E-07 |   0.206281E-05 |   0.735299E-05 |   0.100000E-14
  25 |   0.342062E+00 |   0.790992E-07 |   0.270568E-07 |   0.135770E-05 |   0.318531E-05 |   0.100000E-14
  26 |   0.387326E+00 |   0.220180E-07 |   0.852813E-08 |   0.918035E-06 |   0.145634E-05 |   0.100000E-14
  27 |   0.462222E+00 |   0.593576E-08 |   0.274364E-08 |   0.589647E-06 |   0.600798E-06 |   0.100000E-14
  28 |   0.401475E+00 |   0.343874E-08 |   0.138057E-08 |   0.427033E-06 |   0.315113E-06 |   0.100000E-14
  29 |   0.490409E+00 |   0.173591E-08 |   0.851307E-09 |   0.296856E-06 |   0.152278E-06 |   0.100000E-14
  30 |   0.633193E+00 |   0.624726E-09 |   0.395572E-09 |   0.261648E-06 |   0.118298E-06 |   0.100000E-14
  31 |   0.785106E+00 |   0.220154E-09 |   0.172844E-09 |   0.183000E-06 |   0.578689E-07 |   0.100000E-14
  32 |   0.553797E+00 |   0.182155E-09 |   0.100877E-09 |   0.121642E-06 |   0.255686E-07 |   0.100000E-14
  33 |   0.430864E+00 |   0.141952E-09 |   0.611621E-10 |   0.682204E-07 |   0.804215E-08 |   0.100000E-14
  34 |   0.365626E+00 |   0.631368E-10 |   0.230845E-10 |   0.391396E-07 |   0.264713E-08 |   0.100000E-14
  35 |   0.359839E+00 |   0.157468E-10 |   0.566630E-11 |   0.277414E-07 |   0.132984E-08 |   0.100000E-14
  36 |   0.212088E+00 |   0.181604E-10 |   0.385160E-11 |   0.190144E-07 |   0.624755E-09 |   0.100000E-14
  37 |   0.300486E+00 |   0.407201E-11 |   0.122358E-11 |   0.126315E-07 |   0.275712E-09 |   0.100000E-14
  38 |   0.470794E+00 |   0.105529E-11 |   0.496825E-12 |   0.568017E-08 |   0.557528E-10 |   0.100000E-14
  39 |   0.402804E+00 |   0.299351E-12 |   0.120580E-12 |   0.329026E-08 |   0.187070E-10 |   0.100000E-14
  40 |   0.299303E+00 |   0.191552E-12 |   0.573319E-13 |   0.194435E-08 |   0.653272E-11 |   0.100000E-14
  41 |   0.447243E+00 |   0.258450E-13 |   0.115590E-13 |   0.110363E-08 |   0.210472E-11 |   0.100000E-14
  42 |   0.499902E+00 |   0.561896E-14 |   0.280893E-14 |   0.581321E-09 |   0.583951E-12 |   0.100000E-14
  43 |   0.532056E+00 |   0.147759E-14 |   0.786157E-15 |   0.278557E-09 |   0.134082E-12 |   0.100000E-14
  44 |   0.385192E+00 |   0.716170E-15 |   0.275863E-15 |   0.167555E-09 |   0.485133E-13 |   0.100000E-14
  45 |   0.416499E+00 |   0.261168E-15 |   0.108776E-15 |   0.106171E-09 |   0.194785E-13 |   0.100000E-14
  46 |   0.377241E+00 |   0.897439E-16 |   0.338551E-16 |   0.731729E-10 |   0.925218E-14 |   0.100000E-14
  47 |   0.302769E+00 |   0.677550E-16 |   0.205141E-16 |   0.545605E-10 |   0.514399E-14 |   0.100000E-14
  48 |   0.369760E+00 |   0.310530E-16 |   0.114821E-16 |   0.386065E-10 |   0.257551E-14 |   0.100000E-14
  49 |   0.435804E+00 |   0.119464E-16 |   0.520630E-17 |   0.268931E-10 |   0.124976E-14 |   0.100000E-14
  50 |   0.327010E+00 |   0.858877E-17 |   0.280862E-17 |   0.187692E-10 |   0.608747E-15 |   0.100000E-14

 Charges are converged, EXIT

%%%% DENSITY %%%%%%%%%%%%%%%%%%%%%%%%%%%%%%%%%%%%%%%%%%%%%%%%%%%%%%%%%%%%%%%%%%%

 density label              = velectrostatic                                    

 integral of density        =  -0.8079134070E-13

%%%% CHARGES %%%%%%%%%%%%%%%%%%%%%%%%%%%%%%%%%%%%%%%%%%%%%%%%%%%%%%%%%%%%%%%%%%%

 total number of charges    =             11

 total charge               =      0.0000000

%%%% DENSITY %%%%%%%%%%%%%%%%%%%%%%%%%%%%%%%%%%%%%%%%%%%%%%%%%%%%%%%%%%%%%%%%%%%

 density label              = vsoftcavity                                       

 integral of density        =    10.54216151    

%%%% DENSITY %%%%%%%%%%%%%%%%%%%%%%%%%%%%%%%%%%%%%%%%%%%%%%%%%%%%%%%%%%%%%%%%%%%

 density label              = dvtot                                             

 integral of density        =    10.54216151    

%%%% ELECTRONS %%%%%%%%%%%%%%%%%%%%%%%%%%%%%%%%%%%%%%%%%%%%%%%%%%%%%%%%%%%%%%%%%

 number of electrons        =              8

 total electronic charge    =      8.0000000

%%%% ELECTRONS %%%%%%%%%%%%%%%%%%%%%%%%%%%%%%%%%%%%%%%%%%%%%%%%%%%%%%%%%%%%%%%%%

 number of electrons        =              8

 total electronic charge    =      8.0000000

%%%% CHARGES %%%%%%%%%%%%%%%%%%%%%%%%%%%%%%%%%%%%%%%%%%%%%%%%%%%%%%%%%%%%%%%%%%%

 total number of charges    =             11

 total charge               =      0.0000000

%%%% CHARGES %%%%%%%%%%%%%%%%%%%%%%%%%%%%%%%%%%%%%%%%%%%%%%%%%%%%%%%%%%%%%%%%%%%

 total number of charges    =             11

 total charge               =      0.0000000

%%%% BOUNDARY %%%%%%%%%%%%%%%%%%%%%%%%%%%%%%%%%%%%%%%%%%%%%%%%%%%%%%%%%%%%%%%%%%

 boundary label             = solvent             
 boundary mode              = electronic          

 using the optimal SCCS function:
 rhomax                     =      0.0050000
 rhomin                     =      0.0001000

 volume of the QM region    =    253.4828233

 surface of the QM region   =    191.7956667

%%%% DENSITY %%%%%%%%%%%%%%%%%%%%%%%%%%%%%%%%%%%%%%%%%%%%%%%%%%%%%%%%%%%%%%%%%%%

 density label              = vreference                                        

 integral of density        =  -0.4177728122E-13

%%%% COMPUTE ELECTROSTATIC POTENTIAL %%%%%%%%%%%%%%%%%%%%%%%%%%%%%%%%%%%%%%%%%%%

 Warning: Bad guess with residual norm =   0.121876E+02, reset to no guess

   i |      alpha     |       pAp      |      rzold     |    delta_qm    |    delta_en    |       tol
 ---------------------------------------------------------------------------------------------------------
   1 |   0.998371E+00 |   0.280248E+02 |   0.279791E+02 |   0.265220E-02 |   0.121550E+02 |   0.100000E-14
   2 |   0.143184E+00 |   0.164990E+01 |   0.236238E+00 |   0.773318E-03 |   0.103338E+01 |   0.100000E-14
   3 |   0.181237E+00 |   0.802332E-01 |   0.145412E-01 |   0.362540E-03 |   0.227120E+00 |   0.100000E-14
   4 |   0.229058E+00 |   0.854511E-02 |   0.195733E-02 |   0.303373E-03 |   0.159036E+00 |   0.100000E-14
   5 |   0.244174E+00 |   0.219181E-02 |   0.535184E-03 |   0.268704E-03 |   0.124765E+00 |   0.100000E-14
   6 |   0.507212E+00 |   0.562938E-03 |   0.285529E-03 |   0.232054E-03 |   0.930513E-01 |   0.100000E-14
   7 |   0.732773E+00 |   0.448605E-03 |   0.328726E-03 |   0.256072E-03 |   0.113310E+00 |   0.100000E-14
   8 |   0.456448E+00 |   0.127125E-02 |   0.580259E-03 |   0.251654E-03 |   0.109434E+00 |   0.100000E-14
   9 |   0.321036E+00 |   0.189941E-02 |   0.609778E-03 |   0.194005E-03 |   0.650386E-01 |   0.100000E-14
  10 |   0.447078E+00 |   0.572190E-03 |   0.255814E-03 |   0.179980E-03 |   0.559748E-01 |   0.100000E-14
  11 |   0.491636E+00 |   0.286290E-03 |   0.140751E-03 |   0.176392E-03 |   0.537653E-01 |   0.100000E-14
  12 |   0.716402E+00 |   0.177146E-03 |   0.126908E-03 |   0.173329E-03 |   0.519141E-01 |   0.100000E-14
  13 |   0.464280E+00 |   0.368406E-03 |   0.171044E-03 |   0.161531E-03 |   0.450875E-01 |   0.100000E-14
  14 |   0.327047E+00 |   0.634051E-03 |   0.207364E-03 |   0.143159E-03 |   0.354147E-01 |   0.100000E-14
  15 |   0.431635E+00 |   0.267194E-03 |   0.115330E-03 |   0.134609E-03 |   0.313107E-01 |   0.100000E-14
  16 |   0.484290E+00 |   0.128410E-03 |   0.621875E-04 |   0.114728E-03 |   0.227449E-01 |   0.100000E-14
  17 |   0.554948E+00 |   0.835738E-04 |   0.463791E-04 |   0.870533E-04 |   0.130952E-01 |   0.100000E-14
  18 |   0.470086E+00 |   0.718161E-04 |   0.337598E-04 |   0.531287E-04 |   0.487755E-02 |   0.100000E-14
  19 |   0.418146E+00 |   0.427986E-04 |   0.178961E-04 |   0.341746E-04 |   0.201813E-02 |   0.100000E-14
  20 |   0.419550E+00 |   0.125310E-04 |   0.525737E-05 |   0.274629E-04 |   0.130328E-02 |   0.100000E-14
  21 |   0.348794E+00 |   0.771022E-05 |   0.268928E-05 |   0.217797E-04 |   0.819686E-03 |   0.100000E-14
  22 |   0.383063E+00 |   0.465553E-05 |   0.178336E-05 |   0.160831E-04 |   0.446978E-03 |   0.100000E-14
  23 |   0.338708E+00 |   0.468152E-05 |   0.158567E-05 |   0.111444E-04 |   0.214615E-03 |   0.100000E-14
  24 |   0.512136E+00 |   0.116446E-05 |   0.596364E-06 |   0.691811E-05 |   0.827026E-04 |   0.100000E-14
  25 |   0.412496E+00 |   0.502343E-06 |   0.207214E-06 |   0.553747E-05 |   0.529867E-04 |   0.100000E-14
  26 |   0.439185E+00 |   0.222818E-06 |   0.978583E-07 |   0.413042E-05 |   0.294803E-04 |   0.100000E-14
  27 |   0.541661E+00 |   0.101444E-06 |   0.549484E-07 |   0.291492E-05 |   0.146824E-04 |   0.100000E-14
  28 |   0.488527E+00 |   0.759241E-07 |   0.370910E-07 |   0.221327E-05 |   0.846474E-05 |   0.100000E-14
  29 |   0.382303E+00 |   0.694858E-07 |   0.265646E-07 |   0.165240E-05 |   0.471818E-05 |   0.100000E-14
  30 |   0.553961E+00 |   0.164696E-07 |   0.912352E-08 |   0.121553E-05 |   0.255313E-05 |   0.100000E-14
  31 |   0.605430E+00 |   0.485416E-08 |   0.293885E-08 |   0.674152E-06 |   0.785343E-06 |   0.100000E-14
  32 |   0.552547E+00 |   0.204668E-08 |   0.113088E-08 |   0.343844E-06 |   0.204299E-06 |   0.100000E-14
  33 |   0.367476E+00 |   0.142406E-08 |   0.523307E-09 |   0.184944E-06 |   0.591047E-07 |   0.100000E-14
  34 |   0.357812E+00 |   0.437202E-09 |   0.156436E-09 |   0.109274E-06 |   0.206337E-07 |   0.100000E-14
  35 |   0.427815E+00 |   0.819667E-10 |   0.350666E-10 |   0.661932E-07 |   0.757129E-08 |   0.100000E-14
  36 |   0.274498E+00 |   0.450339E-10 |   0.123617E-10 |   0.471231E-07 |   0.383718E-08 |   0.100000E-14
  37 |   0.253509E+00 |   0.249516E-10 |   0.632544E-11 |   0.314482E-07 |   0.170897E-08 |   0.100000E-14
  38 |   0.357893E+00 |   0.101487E-10 |   0.363215E-11 |   0.154054E-07 |   0.410101E-09 |   0.100000E-14
  39 |   0.556123E+00 |   0.136694E-11 |   0.760189E-12 |   0.903291E-08 |   0.140993E-09 |   0.100000E-14
  40 |   0.323155E+00 |   0.924294E-12 |   0.298691E-12 |   0.706401E-08 |   0.862276E-10 |   0.100000E-14
  41 |   0.461862E+00 |   0.305249E-12 |   0.140983E-12 |   0.491727E-08 |   0.417822E-10 |   0.100000E-14
  42 |   0.616703E+00 |   0.110352E-12 |   0.680542E-13 |   0.343581E-08 |   0.203986E-10 |   0.100000E-14
  43 |   0.693517E+00 |   0.510235E-13 |   0.353857E-13 |   0.264360E-08 |   0.120763E-10 |   0.100000E-14
  44 |   0.588693E+00 |   0.287539E-13 |   0.169272E-13 |   0.180020E-08 |   0.559996E-11 |   0.100000E-14
  45 |   0.374577E+00 |   0.235185E-13 |   0.880948E-14 |   0.127406E-08 |   0.280496E-11 |   0.100000E-14
  46 |   0.417601E+00 |   0.102588E-13 |   0.428409E-14 |   0.815498E-09 |   0.114918E-11 |   0.100000E-14
  47 |   0.273364E+00 |   0.932309E-14 |   0.254860E-14 |   0.563525E-09 |   0.548744E-12 |   0.100000E-14
  48 |   0.354428E+00 |   0.326777E-14 |   0.115819E-14 |   0.359707E-09 |   0.223585E-12 |   0.100000E-14
  49 |   0.457799E+00 |   0.866840E-15 |   0.396839E-15 |   0.237220E-09 |   0.972407E-13 |   0.100000E-14
  50 |   0.328949E+00 |   0.488220E-15 |   0.160600E-15 |   0.171703E-09 |   0.509446E-13 |   0.100000E-14
  51 |   0.312433E+00 |   0.362787E-15 |   0.113347E-15 |   0.133359E-09 |   0.307319E-13 |   0.100000E-14
  52 |   0.386340E+00 |   0.161367E-15 |   0.623424E-16 |   0.937855E-10 |   0.151990E-13 |   0.100000E-14
  53 |   0.589130E+00 |   0.410473E-16 |   0.241822E-16 |   0.558029E-10 |   0.538093E-14 |   0.100000E-14
  54 |   0.508421E+00 |   0.124572E-16 |   0.633353E-17 |   0.321218E-10 |   0.178297E-14 |   0.100000E-14
  55 |   0.288858E+00 |   0.865421E-17 |   0.249984E-17 |   0.212300E-10 |   0.778834E-15 |   0.100000E-14

 Charges are converged, EXIT

%%%% DENSITY %%%%%%%%%%%%%%%%%%%%%%%%%%%%%%%%%%%%%%%%%%%%%%%%%%%%%%%%%%%%%%%%%%%

 density label              = velectrostatic                                    

 integral of density        =  -0.2144128496E-12

%%%% CHARGES %%%%%%%%%%%%%%%%%%%%%%%%%%%%%%%%%%%%%%%%%%%%%%%%%%%%%%%%%%%%%%%%%%%

 total number of charges    =             11

 total charge               =      0.0000000

%%%% DENSITY %%%%%%%%%%%%%%%%%%%%%%%%%%%%%%%%%%%%%%%%%%%%%%%%%%%%%%%%%%%%%%%%%%%

 density label              = vsoftcavity                                       

 integral of density        =    3.966568755    

%%%% DENSITY %%%%%%%%%%%%%%%%%%%%%%%%%%%%%%%%%%%%%%%%%%%%%%%%%%%%%%%%%%%%%%%%%%%

 density label              = dvtot                                             

 integral of density        =    3.966568755    

%%%% ELECTRONS %%%%%%%%%%%%%%%%%%%%%%%%%%%%%%%%%%%%%%%%%%%%%%%%%%%%%%%%%%%%%%%%%

 number of electrons        =              8

 total electronic charge    =      8.0000000

%%%% ELECTRONS %%%%%%%%%%%%%%%%%%%%%%%%%%%%%%%%%%%%%%%%%%%%%%%%%%%%%%%%%%%%%%%%%

 number of electrons        =              8

 total electronic charge    =      8.0000000

%%%% CHARGES %%%%%%%%%%%%%%%%%%%%%%%%%%%%%%%%%%%%%%%%%%%%%%%%%%%%%%%%%%%%%%%%%%%

 total number of charges    =             11

 total charge               =      0.0000000

%%%% CHARGES %%%%%%%%%%%%%%%%%%%%%%%%%%%%%%%%%%%%%%%%%%%%%%%%%%%%%%%%%%%%%%%%%%%

 total number of charges    =             11

 total charge               =      0.0000000

%%%% BOUNDARY %%%%%%%%%%%%%%%%%%%%%%%%%%%%%%%%%%%%%%%%%%%%%%%%%%%%%%%%%%%%%%%%%%

 boundary label             = solvent             
 boundary mode              = electronic          

 using the optimal SCCS function:
 rhomax                     =      0.0050000
 rhomin                     =      0.0001000

 volume of the QM region    =    233.6363025

 surface of the QM region   =    182.8693305

%%%% DENSITY %%%%%%%%%%%%%%%%%%%%%%%%%%%%%%%%%%%%%%%%%%%%%%%%%%%%%%%%%%%%%%%%%%%

 density label              = vreference                                        

 integral of density        =   0.1023707867E-12

%%%% COMPUTE ELECTROSTATIC POTENTIAL %%%%%%%%%%%%%%%%%%%%%%%%%%%%%%%%%%%%%%%%%%%

 Warning: Bad guess with residual norm =   0.750402E+01, reset to no guess

   i |      alpha     |       pAp      |      rzold     |    delta_qm    |    delta_en    |       tol
 ---------------------------------------------------------------------------------------------------------
   1 |   0.999137E+00 |   0.287174E+02 |   0.286926E+02 |   0.208237E-02 |   0.749307E+01 |   0.100000E-14
   2 |   0.142328E+00 |   0.902821E+00 |   0.128497E+00 |   0.747812E-03 |   0.966336E+00 |   0.100000E-14
   3 |   0.187176E+00 |   0.424985E-01 |   0.795473E-02 |   0.419952E-03 |   0.304750E+00 |   0.100000E-14
   4 |   0.262197E+00 |   0.476779E-02 |   0.125010E-02 |   0.326543E-03 |   0.184257E+00 |   0.100000E-14
   5 |   0.279088E+00 |   0.153501E-02 |   0.428403E-03 |   0.297400E-03 |   0.152836E+00 |   0.100000E-14
   6 |   0.608351E+00 |   0.604025E-03 |   0.367459E-03 |   0.275286E-03 |   0.130952E+00 |   0.100000E-14
   7 |   0.104918E+01 |   0.568057E-03 |   0.595995E-03 |   0.384695E-03 |   0.255727E+00 |   0.100000E-14
   8 |   0.506659E+00 |   0.308633E-02 |   0.156372E-02 |   0.478316E-03 |   0.395342E+00 |   0.100000E-14
   9 |   0.316813E+00 |   0.393771E-02 |   0.124752E-02 |   0.406737E-03 |   0.285872E+00 |   0.100000E-14
  10 |   0.391289E+00 |   0.204560E-02 |   0.800420E-03 |   0.378248E-03 |   0.247227E+00 |   0.100000E-14
  11 |   0.526474E+00 |   0.805288E-03 |   0.423963E-03 |   0.332465E-03 |   0.191001E+00 |   0.100000E-14
  12 |   0.605047E+00 |   0.730029E-03 |   0.441701E-03 |   0.302805E-03 |   0.158442E+00 |   0.100000E-14
  13 |   0.434173E+00 |   0.104521E-02 |   0.453803E-03 |   0.250839E-03 |   0.108726E+00 |   0.100000E-14
  14 |   0.295591E+00 |   0.160229E-02 |   0.473621E-03 |   0.193355E-03 |   0.646035E-01 |   0.100000E-14
  15 |   0.411201E+00 |   0.505666E-03 |   0.207930E-03 |   0.176882E-03 |   0.540646E-01 |   0.100000E-14
  16 |   0.495581E+00 |   0.155059E-03 |   0.768441E-04 |   0.145958E-03 |   0.368129E-01 |   0.100000E-14
  17 |   0.476732E+00 |   0.143323E-03 |   0.683267E-04 |   0.117039E-03 |   0.236702E-01 |   0.100000E-14
  18 |   0.671247E+00 |   0.583194E-04 |   0.391467E-04 |   0.631452E-04 |   0.689008E-02 |   0.100000E-14
  19 |   0.353648E+00 |   0.637296E-04 |   0.225379E-04 |   0.416531E-04 |   0.299805E-02 |   0.100000E-14
  20 |   0.414267E+00 |   0.180720E-04 |   0.748662E-05 |   0.355685E-04 |   0.218612E-02 |   0.100000E-14
  21 |   0.487407E+00 |   0.708390E-05 |   0.345274E-05 |   0.262082E-04 |   0.118691E-02 |   0.100000E-14
  22 |   0.625740E+00 |   0.364067E-05 |   0.227811E-05 |   0.181784E-04 |   0.571027E-03 |   0.100000E-14
  23 |   0.505375E+00 |   0.288338E-05 |   0.145719E-05 |   0.132259E-04 |   0.302270E-03 |   0.100000E-14
  24 |   0.329451E+00 |   0.271764E-05 |   0.895330E-06 |   0.109929E-04 |   0.208818E-03 |   0.100000E-14
  25 |   0.292353E+00 |   0.190217E-05 |   0.556104E-06 |   0.930022E-05 |   0.149462E-03 |   0.100000E-14
  26 |   0.386705E+00 |   0.615326E-06 |   0.237950E-06 |   0.721309E-05 |   0.899055E-04 |   0.100000E-14
  27 |   0.457180E+00 |   0.361151E-06 |   0.165111E-06 |   0.493544E-05 |   0.420916E-04 |   0.100000E-14
  28 |   0.566384E+00 |   0.160798E-06 |   0.910737E-07 |   0.318505E-05 |   0.175297E-04 |   0.100000E-14
  29 |   0.352427E+00 |   0.163121E-06 |   0.574883E-07 |   0.266651E-05 |   0.122865E-04 |   0.100000E-14
  30 |   0.512751E+00 |   0.363565E-07 |   0.186418E-07 |   0.185050E-05 |   0.591730E-05 |   0.100000E-14
  31 |   0.534718E+00 |   0.115296E-07 |   0.616511E-08 |   0.106015E-05 |   0.194211E-05 |   0.100000E-14
  32 |   0.599042E+00 |   0.461042E-08 |   0.276183E-08 |   0.472086E-06 |   0.385111E-06 |   0.100000E-14
  33 |   0.324016E+00 |   0.329779E-08 |   0.106854E-08 |   0.304689E-06 |   0.160419E-06 |   0.100000E-14
  34 |   0.436860E+00 |   0.782397E-09 |   0.341798E-09 |   0.170330E-06 |   0.501331E-07 |   0.100000E-14
  35 |   0.382397E+00 |   0.170907E-09 |   0.653541E-10 |   0.109037E-06 |   0.205442E-07 |   0.100000E-14
  36 |   0.382892E+00 |   0.676300E-10 |   0.258950E-10 |   0.629730E-07 |   0.685255E-08 |   0.100000E-14
  37 |   0.404958E+00 |   0.199412E-10 |   0.807536E-11 |   0.383742E-07 |   0.254462E-08 |   0.100000E-14
  38 |   0.212872E+00 |   0.430902E-10 |   0.917269E-11 |   0.242726E-07 |   0.101806E-08 |   0.100000E-14
  39 |   0.545787E+00 |   0.360198E-11 |   0.196591E-11 |   0.167263E-07 |   0.483439E-09 |   0.100000E-14
  40 |   0.598468E+00 |   0.103648E-11 |   0.620302E-12 |   0.120238E-07 |   0.249821E-09 |   0.100000E-14
  41 |   0.808665E+00 |   0.381538E-12 |   0.308536E-12 |   0.822990E-08 |   0.117040E-09 |   0.100000E-14
  42 |   0.589080E+00 |   0.312567E-12 |   0.184127E-12 |   0.643478E-08 |   0.715502E-10 |   0.100000E-14
  43 |   0.341852E+00 |   0.503279E-12 |   0.172047E-12 |   0.491348E-08 |   0.417179E-10 |   0.100000E-14
  44 |   0.426314E+00 |   0.134771E-12 |   0.574547E-13 |   0.325007E-08 |   0.182528E-10 |   0.100000E-14
  45 |   0.513060E+00 |   0.376746E-13 |   0.193293E-13 |   0.164623E-08 |   0.468298E-11 |   0.100000E-14
  46 |   0.510540E+00 |   0.885816E-14 |   0.452244E-14 |   0.926748E-09 |   0.148411E-11 |   0.100000E-14
  47 |   0.197919E+00 |   0.202696E-13 |   0.401174E-14 |   0.606817E-09 |   0.636297E-12 |   0.100000E-14
  48 |   0.514355E+00 |   0.180212E-14 |   0.926931E-15 |   0.308854E-09 |   0.164836E-12 |   0.100000E-14
  49 |   0.429118E+00 |   0.487008E-15 |   0.208984E-15 |   0.204716E-09 |   0.724184E-13 |   0.100000E-14
  50 |   0.381681E+00 |   0.217111E-15 |   0.828673E-16 |   0.128689E-09 |   0.286174E-13 |   0.100000E-14
  51 |   0.316950E+00 |   0.137877E-15 |   0.437000E-16 |   0.828312E-10 |   0.118558E-13 |   0.100000E-14
  52 |   0.316533E+00 |   0.674849E-16 |   0.213612E-16 |   0.580026E-10 |   0.581352E-14 |   0.100000E-14
  53 |   0.411698E+00 |   0.286301E-16 |   0.117870E-16 |   0.408036E-10 |   0.287700E-14 |   0.100000E-14
  54 |   0.559950E+00 |   0.565290E-17 |   0.316534E-17 |   0.268357E-10 |   0.124442E-14 |   0.100000E-14
  55 |   0.468757E+00 |   0.242578E-17 |   0.113710E-17 |   0.160690E-10 |   0.446191E-15 |   0.100000E-14

 Charges are converged, EXIT

%%%% DENSITY %%%%%%%%%%%%%%%%%%%%%%%%%%%%%%%%%%%%%%%%%%%%%%%%%%%%%%%%%%%%%%%%%%%

 density label              = velectrostatic                                    

 integral of density        =  -0.4363258726E-12

%%%% CHARGES %%%%%%%%%%%%%%%%%%%%%%%%%%%%%%%%%%%%%%%%%%%%%%%%%%%%%%%%%%%%%%%%%%%

 total number of charges    =             11

 total charge               =      0.0000000

%%%% DENSITY %%%%%%%%%%%%%%%%%%%%%%%%%%%%%%%%%%%%%%%%%%%%%%%%%%%%%%%%%%%%%%%%%%%

 density label              = vsoftcavity                                       

 integral of density        =    16.63511701    

%%%% DENSITY %%%%%%%%%%%%%%%%%%%%%%%%%%%%%%%%%%%%%%%%%%%%%%%%%%%%%%%%%%%%%%%%%%%

 density label              = dvtot                                             

 integral of density        =    16.63511701    

%%%% ELECTRONS %%%%%%%%%%%%%%%%%%%%%%%%%%%%%%%%%%%%%%%%%%%%%%%%%%%%%%%%%%%%%%%%%

 number of electrons        =              8

 total electronic charge    =      8.0000000

%%%% ELECTRONS %%%%%%%%%%%%%%%%%%%%%%%%%%%%%%%%%%%%%%%%%%%%%%%%%%%%%%%%%%%%%%%%%

 number of electrons        =              8

 total electronic charge    =      8.0000000

%%%% CHARGES %%%%%%%%%%%%%%%%%%%%%%%%%%%%%%%%%%%%%%%%%%%%%%%%%%%%%%%%%%%%%%%%%%%

 total number of charges    =             11

 total charge               =      0.0000000

%%%% CHARGES %%%%%%%%%%%%%%%%%%%%%%%%%%%%%%%%%%%%%%%%%%%%%%%%%%%%%%%%%%%%%%%%%%%

 total number of charges    =             11

 total charge               =      0.0000000

%%%% BOUNDARY %%%%%%%%%%%%%%%%%%%%%%%%%%%%%%%%%%%%%%%%%%%%%%%%%%%%%%%%%%%%%%%%%%

 boundary label             = solvent             
 boundary mode              = electronic          

 using the optimal SCCS function:
 rhomax                     =      0.0050000
 rhomin                     =      0.0001000

 volume of the QM region    =    227.0361074

 surface of the QM region   =    179.5511400

%%%% DENSITY %%%%%%%%%%%%%%%%%%%%%%%%%%%%%%%%%%%%%%%%%%%%%%%%%%%%%%%%%%%%%%%%%%%

 density label              = vreference                                        

 integral of density        =  -0.3875089550E-13

%%%% COMPUTE ELECTROSTATIC POTENTIAL %%%%%%%%%%%%%%%%%%%%%%%%%%%%%%%%%%%%%%%%%%%

 Warning: Bad guess with residual norm =   0.821969E+01, reset to no guess

   i |      alpha     |       pAp      |      rzold     |    delta_qm    |    delta_en    |       tol
 ---------------------------------------------------------------------------------------------------------
   1 |   0.999126E+00 |   0.284993E+02 |   0.284744E+02 |   0.217936E-02 |   0.820736E+01 |   0.100000E-14
   2 |   0.143047E+00 |   0.886007E+00 |   0.126740E+00 |   0.884517E-03 |   0.135194E+01 |   0.100000E-14
   3 |   0.194184E+00 |   0.429496E-01 |   0.834014E-02 |   0.509478E-03 |   0.448534E+00 |   0.100000E-14
   4 |   0.266036E+00 |   0.517195E-02 |   0.137593E-02 |   0.372928E-03 |   0.240322E+00 |   0.100000E-14
   5 |   0.294049E+00 |   0.158629E-02 |   0.466447E-03 |   0.331201E-03 |   0.189551E+00 |   0.100000E-14
   6 |   0.625412E+00 |   0.741250E-03 |   0.463587E-03 |   0.315602E-03 |   0.172117E+00 |   0.100000E-14
   7 |   0.117932E+01 |   0.714192E-03 |   0.842259E-03 |   0.517648E-03 |   0.463034E+00 |   0.100000E-14
   8 |   0.591231E+00 |   0.429446E-02 |   0.253902E-02 |   0.745138E-03 |   0.959439E+00 |   0.100000E-14
   9 |   0.424397E+00 |   0.519201E-02 |   0.220347E-02 |   0.668472E-03 |   0.772164E+00 |   0.100000E-14
  10 |   0.350652E+00 |   0.613644E-02 |   0.215176E-02 |   0.673195E-03 |   0.783116E+00 |   0.100000E-14
  11 |   0.533022E+00 |   0.252390E-02 |   0.134529E-02 |   0.615668E-03 |   0.654993E+00 |   0.100000E-14
  12 |   0.631904E+00 |   0.249881E-02 |   0.157901E-02 |   0.610034E-03 |   0.643061E+00 |   0.100000E-14
  13 |   0.470299E+00 |   0.376256E-02 |   0.176953E-02 |   0.511901E-03 |   0.452809E+00 |   0.100000E-14
  14 |   0.283039E+00 |   0.664000E-02 |   0.187938E-02 |   0.391847E-03 |   0.265325E+00 |   0.100000E-14
  15 |   0.408741E+00 |   0.204061E-02 |   0.834079E-03 |   0.363281E-03 |   0.228050E+00 |   0.100000E-14
  16 |   0.523560E+00 |   0.592873E-03 |   0.310405E-03 |   0.306514E-03 |   0.162347E+00 |   0.100000E-14
  17 |   0.467822E+00 |   0.632631E-03 |   0.295959E-03 |   0.255567E-03 |   0.112864E+00 |   0.100000E-14
  18 |   0.702881E+00 |   0.251722E-03 |   0.176931E-03 |   0.132156E-03 |   0.301800E-01 |   0.100000E-14
  19 |   0.372306E+00 |   0.234842E-03 |   0.874332E-04 |   0.906923E-04 |   0.142130E-01 |   0.100000E-14
  20 |   0.384558E+00 |   0.997659E-04 |   0.383657E-04 |   0.783802E-04 |   0.106159E-01 |   0.100000E-14
  21 |   0.605450E+00 |   0.249565E-04 |   0.151099E-04 |   0.550639E-04 |   0.523936E-02 |   0.100000E-14
  22 |   0.597368E+00 |   0.184308E-04 |   0.110100E-04 |   0.420216E-04 |   0.305133E-02 |   0.100000E-14
  23 |   0.359720E+00 |   0.263321E-04 |   0.947219E-05 |   0.328808E-04 |   0.186823E-02 |   0.100000E-14
  24 |   0.318082E+00 |   0.195895E-04 |   0.623105E-05 |   0.278074E-04 |   0.133618E-02 |   0.100000E-14
  25 |   0.307032E+00 |   0.114587E-04 |   0.351820E-05 |   0.239635E-04 |   0.992301E-03 |   0.100000E-14
  26 |   0.581070E+00 |   0.212173E-05 |   0.123288E-05 |   0.166296E-04 |   0.477869E-03 |   0.100000E-14
  27 |   0.461159E+00 |   0.183547E-05 |   0.846441E-06 |   0.120762E-04 |   0.252003E-03 |   0.100000E-14
  28 |   0.451994E+00 |   0.159956E-05 |   0.722991E-06 |   0.835306E-05 |   0.120569E-03 |   0.100000E-14
  29 |   0.494028E+00 |   0.504454E-06 |   0.249215E-06 |   0.646153E-05 |   0.721463E-04 |   0.100000E-14
  30 |   0.492294E+00 |   0.182423E-06 |   0.898056E-07 |   0.420232E-05 |   0.305156E-04 |   0.100000E-14
  31 |   0.452406E+00 |   0.773236E-07 |   0.349816E-07 |   0.250486E-05 |   0.108420E-04 |   0.100000E-14
  32 |   0.528344E+00 |   0.325078E-07 |   0.171753E-07 |   0.120529E-05 |   0.251030E-05 |   0.100000E-14
  33 |   0.412009E+00 |   0.129946E-07 |   0.535390E-08 |   0.743624E-06 |   0.955543E-06 |   0.100000E-14
  34 |   0.346286E+00 |   0.619532E-08 |   0.214536E-08 |   0.479072E-06 |   0.396593E-06 |   0.100000E-14
  35 |   0.414611E+00 |   0.111929E-08 |   0.464069E-09 |   0.283042E-06 |   0.138435E-06 |   0.100000E-14
  36 |   0.365199E+00 |   0.369497E-09 |   0.134940E-09 |   0.173495E-06 |   0.520139E-07 |   0.100000E-14
  37 |   0.264257E+00 |   0.311220E-09 |   0.822421E-10 |   0.110693E-06 |   0.211731E-07 |   0.100000E-14
  38 |   0.290420E+00 |   0.191262E-09 |   0.555463E-10 |   0.648541E-07 |   0.726807E-08 |   0.100000E-14
  39 |   0.584199E+00 |   0.223584E-10 |   0.130618E-10 |   0.463247E-07 |   0.370825E-08 |   0.100000E-14
  40 |   0.671150E+00 |   0.581753E-11 |   0.390443E-11 |   0.330730E-07 |   0.189013E-08 |   0.100000E-14
  41 |   0.640304E+00 |   0.376815E-11 |   0.241276E-11 |   0.223369E-07 |   0.862160E-09 |   0.100000E-14
  42 |   0.395346E+00 |   0.435015E-11 |   0.171982E-11 |   0.179436E-07 |   0.556370E-09 |   0.100000E-14
  43 |   0.438377E+00 |   0.261190E-11 |   0.114500E-11 |   0.133210E-07 |   0.306631E-09 |   0.100000E-14
  44 |   0.538751E+00 |   0.723664E-12 |   0.389874E-12 |   0.886281E-08 |   0.135733E-09 |   0.100000E-14
  45 |   0.556853E+00 |   0.210466E-12 |   0.117199E-12 |   0.504037E-08 |   0.439005E-10 |   0.100000E-14
  46 |   0.500701E+00 |   0.890119E-13 |   0.445683E-13 |   0.274482E-08 |   0.130188E-10 |   0.100000E-14
  47 |   0.309253E+00 |   0.634121E-13 |   0.196104E-13 |   0.166219E-08 |   0.477426E-11 |   0.100000E-14
  48 |   0.309342E+00 |   0.384349E-13 |   0.118895E-13 |   0.114288E-08 |   0.225708E-11 |   0.100000E-14
  49 |   0.302388E+00 |   0.125167E-13 |   0.378490E-14 |   0.876978E-09 |   0.132899E-11 |   0.100000E-14
  50 |   0.520759E+00 |   0.302979E-14 |   0.157779E-14 |   0.602838E-09 |   0.627978E-12 |   0.100000E-14
  51 |   0.364569E+00 |   0.193715E-14 |   0.706223E-15 |   0.437589E-09 |   0.330884E-12 |   0.100000E-14
  52 |   0.305960E+00 |   0.240323E-14 |   0.735292E-15 |   0.285981E-09 |   0.141325E-12 |   0.100000E-14
  53 |   0.449270E+00 |   0.440571E-15 |   0.197935E-15 |   0.186675E-09 |   0.602167E-13 |   0.100000E-14
  54 |   0.404289E+00 |   0.215366E-15 |   0.870701E-16 |   0.118577E-09 |   0.242965E-13 |   0.100000E-14
  55 |   0.491626E+00 |   0.424515E-16 |   0.208703E-16 |   0.693679E-10 |   0.831498E-14 |   0.100000E-14
  56 |   0.514638E+00 |   0.173150E-16 |   0.891094E-17 |   0.333627E-10 |   0.192339E-14 |   0.100000E-14
  57 |   0.376158E+00 |   0.686052E-17 |   0.258064E-17 |   0.226428E-10 |   0.885937E-15 |   0.100000E-14

 Charges are converged, EXIT

%%%% DENSITY %%%%%%%%%%%%%%%%%%%%%%%%%%%%%%%%%%%%%%%%%%%%%%%%%%%%%%%%%%%%%%%%%%%

 density label              = velectrostatic                                    

 integral of density        =   0.1063445628E-11

%%%% CHARGES %%%%%%%%%%%%%%%%%%%%%%%%%%%%%%%%%%%%%%%%%%%%%%%%%%%%%%%%%%%%%%%%%%%

 total number of charges    =             11

 total charge               =      0.0000000

%%%% DENSITY %%%%%%%%%%%%%%%%%%%%%%%%%%%%%%%%%%%%%%%%%%%%%%%%%%%%%%%%%%%%%%%%%%%

 density label              = vsoftcavity                                       

 integral of density        =    95.02440286    

%%%% DENSITY %%%%%%%%%%%%%%%%%%%%%%%%%%%%%%%%%%%%%%%%%%%%%%%%%%%%%%%%%%%%%%%%%%%

 density label              = dvtot                                             

 integral of density        =    95.02440286    

%%%% ELECTRONS %%%%%%%%%%%%%%%%%%%%%%%%%%%%%%%%%%%%%%%%%%%%%%%%%%%%%%%%%%%%%%%%%

 number of electrons        =              8

 total electronic charge    =      8.0000000

%%%% ELECTRONS %%%%%%%%%%%%%%%%%%%%%%%%%%%%%%%%%%%%%%%%%%%%%%%%%%%%%%%%%%%%%%%%%

 number of electrons        =              8

 total electronic charge    =      8.0000000

%%%% CHARGES %%%%%%%%%%%%%%%%%%%%%%%%%%%%%%%%%%%%%%%%%%%%%%%%%%%%%%%%%%%%%%%%%%%

 total number of charges    =             11

 total charge               =      0.0000000

%%%% CHARGES %%%%%%%%%%%%%%%%%%%%%%%%%%%%%%%%%%%%%%%%%%%%%%%%%%%%%%%%%%%%%%%%%%%

 total number of charges    =             11

 total charge               =      0.0000000

%%%% BOUNDARY %%%%%%%%%%%%%%%%%%%%%%%%%%%%%%%%%%%%%%%%%%%%%%%%%%%%%%%%%%%%%%%%%%

 boundary label             = solvent             
 boundary mode              = electronic          

 using the optimal SCCS function:
 rhomax                     =      0.0050000
 rhomin                     =      0.0001000

 volume of the QM region    =    227.0092128

 surface of the QM region   =    179.5312957

%%%% DENSITY %%%%%%%%%%%%%%%%%%%%%%%%%%%%%%%%%%%%%%%%%%%%%%%%%%%%%%%%%%%%%%%%%%%

 density label              = vreference                                        

 integral of density        =   0.3039543925E-13

%%%% COMPUTE ELECTROSTATIC POTENTIAL %%%%%%%%%%%%%%%%%%%%%%%%%%%%%%%%%%%%%%%%%%%

 Warning: Bad guess with residual norm =   0.824518E+01, reset to no guess

   i |      alpha     |       pAp      |      rzold     |    delta_qm    |    delta_en    |       tol
 ---------------------------------------------------------------------------------------------------------
   1 |   0.999126E+00 |   0.284976E+02 |   0.284727E+02 |   0.218274E-02 |   0.823280E+01 |   0.100000E-14
   2 |   0.143018E+00 |   0.886429E+00 |   0.126775E+00 |   0.888549E-03 |   0.136429E+01 |   0.100000E-14
   3 |   0.194182E+00 |   0.429235E-01 |   0.833499E-02 |   0.512046E-03 |   0.453066E+00 |   0.100000E-14
   4 |   0.266198E+00 |   0.516529E-02 |   0.137499E-02 |   0.373431E-03 |   0.240971E+00 |   0.100000E-14
   5 |   0.294112E+00 |   0.158864E-02 |   0.467239E-03 |   0.330774E-03 |   0.189063E+00 |   0.100000E-14
   6 |   0.624812E+00 |   0.742987E-03 |   0.464227E-03 |   0.315127E-03 |   0.171599E+00 |   0.100000E-14
   7 |   0.118392E+01 |   0.711835E-03 |   0.842759E-03 |   0.520725E-03 |   0.468555E+00 |   0.100000E-14
   8 |   0.595215E+00 |   0.430587E-02 |   0.256292E-02 |   0.756350E-03 |   0.988528E+00 |   0.100000E-14
   9 |   0.425899E+00 |   0.529257E-02 |   0.225410E-02 |   0.680944E-03 |   0.801248E+00 |   0.100000E-14
  10 |   0.352876E+00 |   0.629698E-02 |   0.222205E-02 |   0.688187E-03 |   0.818382E+00 |   0.100000E-14
  11 |   0.537279E+00 |   0.262026E-02 |   0.140781E-02 |   0.632724E-03 |   0.691786E+00 |   0.100000E-14
  12 |   0.636225E+00 |   0.263328E-02 |   0.167536E-02 |   0.632798E-03 |   0.691948E+00 |   0.100000E-14
  13 |   0.472672E+00 |   0.402454E-02 |   0.190229E-02 |   0.532499E-03 |   0.489984E+00 |   0.100000E-14
  14 |   0.283884E+00 |   0.718928E-02 |   0.204092E-02 |   0.408294E-03 |   0.288065E+00 |   0.100000E-14
  15 |   0.409839E+00 |   0.222306E-02 |   0.911097E-03 |   0.381078E-03 |   0.250941E+00 |   0.100000E-14
  16 |   0.525757E+00 |   0.649616E-03 |   0.341540E-03 |   0.322959E-03 |   0.180235E+00 |   0.100000E-14
  17 |   0.468076E+00 |   0.700258E-03 |   0.327774E-03 |   0.270544E-03 |   0.126479E+00 |   0.100000E-14
  18 |   0.703884E+00 |   0.279111E-03 |   0.196462E-03 |   0.139846E-03 |   0.337944E-01 |   0.100000E-14
  19 |   0.372387E+00 |   0.260715E-03 |   0.970868E-04 |   0.958242E-04 |   0.158670E-01 |   0.100000E-14
  20 |   0.384741E+00 |   0.110675E-03 |   0.425814E-04 |   0.828687E-04 |   0.118666E-01 |   0.100000E-14
  21 |   0.607441E+00 |   0.277710E-04 |   0.168692E-04 |   0.583524E-04 |   0.588384E-02 |   0.100000E-14
  22 |   0.597515E+00 |   0.207141E-04 |   0.123770E-04 |   0.446040E-04 |   0.343789E-02 |   0.100000E-14
  23 |   0.357949E+00 |   0.296955E-04 |   0.106295E-04 |   0.349015E-04 |   0.210491E-02 |   0.100000E-14
  24 |   0.317979E+00 |   0.219652E-04 |   0.698448E-05 |   0.294693E-04 |   0.150066E-02 |   0.100000E-14
  25 |   0.308482E+00 |   0.127421E-04 |   0.393072E-05 |   0.253769E-04 |   0.111281E-02 |   0.100000E-14
  26 |   0.580251E+00 |   0.238612E-05 |   0.138455E-05 |   0.176071E-04 |   0.535699E-03 |   0.100000E-14
  27 |   0.460663E+00 |   0.205895E-05 |   0.948484E-06 |   0.127692E-04 |   0.281753E-03 |   0.100000E-14
  28 |   0.452003E+00 |   0.178295E-05 |   0.805897E-06 |   0.881434E-05 |   0.134253E-03 |   0.100000E-14
  29 |   0.489943E+00 |   0.569691E-06 |   0.279116E-06 |   0.683832E-05 |   0.808058E-04 |   0.100000E-14
  30 |   0.489038E+00 |   0.206311E-06 |   0.100894E-06 |   0.446150E-05 |   0.343958E-04 |   0.100000E-14
  31 |   0.455549E+00 |   0.859257E-07 |   0.391434E-07 |   0.263748E-05 |   0.120205E-04 |   0.100000E-14
  32 |   0.531553E+00 |   0.357279E-07 |   0.189913E-07 |   0.126617E-05 |   0.277033E-05 |   0.100000E-14
  33 |   0.405256E+00 |   0.147904E-07 |   0.599391E-08 |   0.792627E-06 |   0.108563E-05 |   0.100000E-14
  34 |   0.348480E+00 |   0.689544E-08 |   0.240292E-08 |   0.507564E-06 |   0.445169E-06 |   0.100000E-14
  35 |   0.347641E+00 |   0.159674E-08 |   0.555093E-09 |   0.334151E-06 |   0.192944E-06 |   0.100000E-14
  36 |   0.197817E+00 |   0.156417E-08 |   0.309419E-09 |   0.233217E-06 |   0.939865E-07 |   0.100000E-14
  37 |   0.381711E+00 |   0.278561E-09 |   0.106330E-09 |   0.130056E-06 |   0.292282E-07 |   0.100000E-14
  38 |   0.434214E+00 |   0.117325E-09 |   0.509443E-10 |   0.688386E-07 |   0.818856E-08 |   0.100000E-14
  39 |   0.600678E+00 |   0.237470E-10 |   0.142643E-10 |   0.488189E-07 |   0.411831E-08 |   0.100000E-14
  40 |   0.672594E+00 |   0.645079E-11 |   0.433876E-11 |   0.348728E-07 |   0.210144E-08 |   0.100000E-14
  41 |   0.641709E+00 |   0.419737E-11 |   0.269349E-11 |   0.236097E-07 |   0.963218E-09 |   0.100000E-14
  42 |   0.394235E+00 |   0.488426E-11 |   0.192555E-11 |   0.189324E-07 |   0.619374E-09 |   0.100000E-14
  43 |   0.437687E+00 |   0.291124E-11 |   0.127421E-11 |   0.139967E-07 |   0.338528E-09 |   0.100000E-14
  44 |   0.538865E+00 |   0.798957E-12 |   0.430530E-12 |   0.927857E-08 |   0.148767E-09 |   0.100000E-14
  45 |   0.549052E+00 |   0.238479E-12 |   0.130938E-12 |   0.542894E-08 |   0.509301E-10 |   0.100000E-14
  46 |   0.377368E+00 |   0.147861E-12 |   0.557981E-13 |   0.327005E-08 |   0.184778E-10 |   0.100000E-14
  47 |   0.234798E+00 |   0.180054E-12 |   0.422763E-13 |   0.214990E-08 |   0.798697E-11 |   0.100000E-14
  48 |   0.456866E+00 |   0.265928E-13 |   0.121494E-13 |   0.121938E-08 |   0.256933E-11 |   0.100000E-14
  49 |   0.323515E+00 |   0.140434E-13 |   0.454324E-14 |   0.951987E-09 |   0.156605E-11 |   0.100000E-14
  50 |   0.557351E+00 |   0.311838E-14 |   0.173804E-14 |   0.650900E-09 |   0.732102E-12 |   0.100000E-14
  51 |   0.398066E+00 |   0.198570E-14 |   0.790441E-15 |   0.452933E-09 |   0.354496E-12 |   0.100000E-14
  52 |   0.301487E+00 |   0.269674E-14 |   0.813034E-15 |   0.306164E-09 |   0.161976E-12 |   0.100000E-14
  53 |   0.442010E+00 |   0.508537E-15 |   0.224778E-15 |   0.199091E-09 |   0.684930E-13 |   0.100000E-14
  54 |   0.403260E+00 |   0.243076E-15 |   0.980228E-16 |   0.125749E-09 |   0.273244E-13 |   0.100000E-14
  55 |   0.490251E+00 |   0.479644E-16 |   0.235146E-16 |   0.731724E-10 |   0.925205E-14 |   0.100000E-14
  56 |   0.508467E+00 |   0.196472E-16 |   0.998997E-17 |   0.353418E-10 |   0.215834E-14 |   0.100000E-14
  57 |   0.328504E+00 |   0.943603E-17 |   0.309977E-17 |   0.247886E-10 |   0.106182E-14 |   0.100000E-14
  58 |   0.269035E+00 |   0.995019E-17 |   0.267695E-17 |   0.159840E-10 |   0.441485E-15 |   0.100000E-14

 Charges are converged, EXIT

%%%% DENSITY %%%%%%%%%%%%%%%%%%%%%%%%%%%%%%%%%%%%%%%%%%%%%%%%%%%%%%%%%%%%%%%%%%%

 density label              = velectrostatic                                    

 integral of density        =  -0.5534338420E-12

%%%% CHARGES %%%%%%%%%%%%%%%%%%%%%%%%%%%%%%%%%%%%%%%%%%%%%%%%%%%%%%%%%%%%%%%%%%%

 total number of charges    =             11

 total charge               =      0.0000000

%%%% DENSITY %%%%%%%%%%%%%%%%%%%%%%%%%%%%%%%%%%%%%%%%%%%%%%%%%%%%%%%%%%%%%%%%%%%

 density label              = vsoftcavity                                       

 integral of density        =    104.4111246    

%%%% DENSITY %%%%%%%%%%%%%%%%%%%%%%%%%%%%%%%%%%%%%%%%%%%%%%%%%%%%%%%%%%%%%%%%%%%

 density label              = dvtot                                             

 integral of density        =    104.4111246    

%%%% ELECTRONS %%%%%%%%%%%%%%%%%%%%%%%%%%%%%%%%%%%%%%%%%%%%%%%%%%%%%%%%%%%%%%%%%

 number of electrons        =              8

 total electronic charge    =      8.0000000

%%%% ELECTRONS %%%%%%%%%%%%%%%%%%%%%%%%%%%%%%%%%%%%%%%%%%%%%%%%%%%%%%%%%%%%%%%%%

 number of electrons        =              8

 total electronic charge    =      8.0000000

%%%% CHARGES %%%%%%%%%%%%%%%%%%%%%%%%%%%%%%%%%%%%%%%%%%%%%%%%%%%%%%%%%%%%%%%%%%%

 total number of charges    =             11

 total charge               =      0.0000000

%%%% CHARGES %%%%%%%%%%%%%%%%%%%%%%%%%%%%%%%%%%%%%%%%%%%%%%%%%%%%%%%%%%%%%%%%%%%

 total number of charges    =             11

 total charge               =      0.0000000

%%%% BOUNDARY %%%%%%%%%%%%%%%%%%%%%%%%%%%%%%%%%%%%%%%%%%%%%%%%%%%%%%%%%%%%%%%%%%

 boundary label             = solvent             
 boundary mode              = electronic          

 using the optimal SCCS function:
 rhomax                     =      0.0050000
 rhomin                     =      0.0001000

 volume of the QM region    =    223.3709023

 surface of the QM region   =    177.7136056

%%%% DENSITY %%%%%%%%%%%%%%%%%%%%%%%%%%%%%%%%%%%%%%%%%%%%%%%%%%%%%%%%%%%%%%%%%%%

 density label              = vreference                                        

 integral of density        =   0.1601352795E-12

%%%% COMPUTE ELECTROSTATIC POTENTIAL %%%%%%%%%%%%%%%%%%%%%%%%%%%%%%%%%%%%%%%%%%%

 Warning: Bad guess with residual norm =   0.909067E+01, reset to no guess

   i |      alpha     |       pAp      |      rzold     |    delta_qm    |    delta_en    |       tol
 ---------------------------------------------------------------------------------------------------------
   1 |   0.999085E+00 |   0.283425E+02 |   0.283166E+02 |   0.229183E-02 |   0.907627E+01 |   0.100000E-14
   2 |   0.143100E+00 |   0.920480E+00 |   0.131721E+00 |   0.100240E-02 |   0.173632E+01 |   0.100000E-14
   3 |   0.196709E+00 |   0.442529E-01 |   0.870496E-02 |   0.606692E-03 |   0.636034E+00 |   0.100000E-14
   4 |   0.275576E+00 |   0.535490E-02 |   0.147568E-02 |   0.438846E-03 |   0.332788E+00 |   0.100000E-14
   5 |   0.320574E+00 |   0.172077E-02 |   0.551634E-03 |   0.381722E-03 |   0.251790E+00 |   0.100000E-14
   6 |   0.661357E+00 |   0.983023E-03 |   0.650129E-03 |   0.381979E-03 |   0.252130E+00 |   0.100000E-14
   7 |   0.148117E+01 |   0.918386E-03 |   0.136028E-02 |   0.883330E-03 |   0.134831E+01 |   0.100000E-14
   8 |   0.100652E+01 |   0.639859E-02 |   0.644034E-02 |   0.229119E-02 |   0.907123E+01 |   0.100000E-14
   9 |   0.985655E+00 |   0.162992E-01 |   0.160654E-01 |   0.436770E-02 |   0.329647E+02 |   0.100000E-14
  10 |   0.624243E+01 |   0.123543E-01 |   0.771209E-01 |   0.760219E-01 |   0.998667E+04 |   0.100000E-14
  11 |  -0.303807E-01 |  -0.583131E+03 |   0.177159E+02 |   0.371066E-02 |   0.237929E+02 |   0.100000E-14
  12 |   0.244527E+00 |   0.283762E+00 |   0.693875E-01 |   0.148206E-02 |   0.379555E+01 |   0.100000E-14
  13 |   0.309470E+00 |   0.365639E-01 |   0.113154E-01 |   0.830172E-03 |   0.119091E+01 |   0.100000E-14
  14 |   0.228835E+00 |   0.210549E-01 |   0.481810E-02 |   0.559164E-03 |   0.540284E+00 |   0.100000E-14
  15 |   0.376309E+00 |   0.395608E-02 |   0.148871E-02 |   0.494420E-03 |   0.422411E+00 |   0.100000E-14
  16 |   0.560663E+00 |   0.936797E-03 |   0.525227E-03 |   0.390977E-03 |   0.264147E+00 |   0.100000E-14
  17 |   0.443712E+00 |   0.118644E-02 |   0.526436E-03 |   0.318103E-03 |   0.174856E+00 |   0.100000E-14
  18 |   0.643072E+00 |   0.453512E-03 |   0.291641E-03 |   0.161381E-03 |   0.450035E-01 |   0.100000E-14
  19 |   0.381353E+00 |   0.310108E-03 |   0.118261E-03 |   0.116112E-03 |   0.232968E-01 |   0.100000E-14
  20 |   0.402493E+00 |   0.136877E-03 |   0.550918E-04 |   0.101911E-03 |   0.179468E-01 |   0.100000E-14
  21 |   0.650092E+00 |   0.404336E-04 |   0.262855E-04 |   0.720858E-04 |   0.897931E-02 |   0.100000E-14
  22 |   0.588357E+00 |   0.364261E-04 |   0.214316E-04 |   0.575616E-04 |   0.572544E-02 |   0.100000E-14
  23 |   0.374082E+00 |   0.436091E-04 |   0.163134E-04 |   0.449765E-04 |   0.349554E-02 |   0.100000E-14
  24 |   0.321470E+00 |   0.306310E-04 |   0.984694E-05 |   0.381665E-04 |   0.251715E-02 |   0.100000E-14
  25 |   0.288721E+00 |   0.201921E-04 |   0.582988E-05 |   0.322403E-04 |   0.179614E-02 |   0.100000E-14
  26 |   0.571877E+00 |   0.391760E-05 |   0.224038E-05 |   0.212409E-04 |   0.779632E-03 |   0.100000E-14
  27 |   0.453517E+00 |   0.322610E-05 |   0.146309E-05 |   0.148280E-04 |   0.379935E-03 |   0.100000E-14
  28 |   0.413532E+00 |   0.275170E-05 |   0.113792E-05 |   0.107879E-04 |   0.201103E-03 |   0.100000E-14
  29 |   0.466406E+00 |   0.754717E-06 |   0.352005E-06 |   0.854256E-05 |   0.126101E-03 |   0.100000E-14
  30 |   0.481424E+00 |   0.271428E-06 |   0.130672E-06 |   0.540904E-05 |   0.505573E-04 |   0.100000E-14
  31 |   0.480678E+00 |   0.104906E-06 |   0.504257E-07 |   0.286043E-05 |   0.141386E-04 |   0.100000E-14
  32 |   0.521005E+00 |   0.441466E-07 |   0.230006E-07 |   0.138450E-05 |   0.331228E-05 |   0.100000E-14
  33 |   0.383923E+00 |   0.183796E-07 |   0.705637E-08 |   0.969478E-06 |   0.162412E-05 |   0.100000E-14
  34 |   0.368960E+00 |   0.737214E-08 |   0.272003E-08 |   0.641707E-06 |   0.711569E-06 |   0.100000E-14
  35 |   0.386183E+00 |   0.170808E-08 |   0.659630E-09 |   0.406759E-06 |   0.285903E-06 |   0.100000E-14
  36 |   0.213357E+00 |   0.175400E-08 |   0.374229E-09 |   0.277923E-06 |   0.133473E-06 |   0.100000E-14
  37 |   0.340762E+00 |   0.487420E-09 |   0.166094E-09 |   0.150468E-06 |   0.391229E-07 |   0.100000E-14
  38 |   0.408107E+00 |   0.187167E-09 |   0.763841E-10 |   0.789784E-07 |   0.107786E-07 |   0.100000E-14
  39 |   0.594577E+00 |   0.301468E-10 |   0.179246E-10 |   0.577898E-07 |   0.577093E-08 |   0.100000E-14
  40 |   0.740353E+00 |   0.740793E-11 |   0.548448E-11 |   0.406477E-07 |   0.285507E-08 |   0.100000E-14
  41 |   0.664126E+00 |   0.589279E-11 |   0.391356E-11 |   0.278107E-07 |   0.133650E-08 |   0.100000E-14
  42 |   0.426440E+00 |   0.560680E-11 |   0.239096E-11 |   0.212705E-07 |   0.781805E-09 |   0.100000E-14
  43 |   0.361847E+00 |   0.441094E-11 |   0.159609E-11 |   0.152350E-07 |   0.401080E-09 |   0.100000E-14
  44 |   0.523410E+00 |   0.941238E-12 |   0.492653E-12 |   0.100140E-07 |   0.173284E-09 |   0.100000E-14
  45 |   0.459028E+00 |   0.376060E-12 |   0.172622E-12 |   0.624551E-08 |   0.674030E-10 |   0.100000E-14
  46 |   0.243790E+00 |   0.584580E-12 |   0.142515E-12 |   0.474392E-08 |   0.388883E-10 |   0.100000E-14
  47 |   0.445813E+00 |   0.117621E-12 |   0.524369E-13 |   0.265382E-08 |   0.121699E-10 |   0.100000E-14
  48 |   0.433950E+00 |   0.399488E-13 |   0.173358E-13 |   0.171869E-08 |   0.510430E-11 |   0.100000E-14
  49 |   0.219348E+00 |   0.585424E-13 |   0.128411E-13 |   0.139459E-08 |   0.336077E-11 |   0.100000E-14
  50 |   0.520177E+00 |   0.711714E-14 |   0.370217E-14 |   0.995689E-09 |   0.171313E-11 |   0.100000E-14
  51 |   0.368498E+00 |   0.733486E-14 |   0.270288E-14 |   0.734317E-09 |   0.931776E-12 |   0.100000E-14
  52 |   0.588640E+00 |   0.190978E-14 |   0.112417E-14 |   0.431355E-09 |   0.321524E-12 |   0.100000E-14
  53 |   0.494467E+00 |   0.701325E-15 |   0.346782E-15 |   0.256088E-09 |   0.113324E-12 |   0.100000E-14
  54 |   0.394207E+00 |   0.361198E-15 |   0.142387E-15 |   0.152365E-09 |   0.401154E-13 |   0.100000E-14
  55 |   0.480626E+00 |   0.763637E-16 |   0.367024E-16 |   0.839585E-10 |   0.121807E-13 |   0.100000E-14
  56 |   0.483881E+00 |   0.323085E-16 |   0.156335E-16 |   0.426114E-10 |   0.313758E-14 |   0.100000E-14
  57 |   0.580611E+00 |   0.625805E-17 |   0.363349E-17 |   0.240993E-10 |   0.100358E-14 |   0.100000E-14
  58 |   0.215764E+00 |   0.719381E-17 |   0.155217E-17 |   0.191685E-10 |   0.634924E-15 |   0.100000E-14

 Charges are converged, EXIT

[...]

 total charge               =     -0.0000000

%%%% DENSITY %%%%%%%%%%%%%%%%%%%%%%%%%%%%%%%%%%%%%%%%%%%%%%%%%%%%%%%%%%%%%%%%%%%

 density label              = vsoftcavity                                       

 integral of density        =    21.80407338    

%%%% DENSITY %%%%%%%%%%%%%%%%%%%%%%%%%%%%%%%%%%%%%%%%%%%%%%%%%%%%%%%%%%%%%%%%%%%

 density label              = dvtot                                             

 integral of density        =    21.80407338    

%%%% ELECTRONS %%%%%%%%%%%%%%%%%%%%%%%%%%%%%%%%%%%%%%%%%%%%%%%%%%%%%%%%%%%%%%%%%

 number of electrons        =              8

 total electronic charge    =      8.0000000

%%%% ELECTRONS %%%%%%%%%%%%%%%%%%%%%%%%%%%%%%%%%%%%%%%%%%%%%%%%%%%%%%%%%%%%%%%%%

 number of electrons        =              8

 total electronic charge    =      8.0000000

%%%% CHARGES %%%%%%%%%%%%%%%%%%%%%%%%%%%%%%%%%%%%%%%%%%%%%%%%%%%%%%%%%%%%%%%%%%%

 total number of charges    =             11

 total charge               =      0.0000000

%%%% CHARGES %%%%%%%%%%%%%%%%%%%%%%%%%%%%%%%%%%%%%%%%%%%%%%%%%%%%%%%%%%%%%%%%%%%

 total number of charges    =             11

 total charge               =      0.0000000

%%%% BOUNDARY %%%%%%%%%%%%%%%%%%%%%%%%%%%%%%%%%%%%%%%%%%%%%%%%%%%%%%%%%%%%%%%%%%

 boundary label             = solvent             
 boundary mode              = electronic          

 using the optimal SCCS function:
 rhomax                     =      0.0050000
 rhomin                     =      0.0001000

 volume of the QM region    =    227.8574608

 surface of the QM region   =    180.4263563

%%%% DENSITY %%%%%%%%%%%%%%%%%%%%%%%%%%%%%%%%%%%%%%%%%%%%%%%%%%%%%%%%%%%%%%%%%%%

 density label              = vreference                                        

 integral of density        =   0.9816016313E-13

%%%% COMPUTE ELECTROSTATIC POTENTIAL %%%%%%%%%%%%%%%%%%%%%%%%%%%%%%%%%%%%%%%%%%%

 Warning: Bad guess with residual norm =   0.112726E+02, reset to no guess

   i |      alpha     |       pAp      |      rzold     |    delta_qm    |    delta_en    |       tol
 ---------------------------------------------------------------------------------------------------------
   1 |   0.998974E+00 |   0.284565E+02 |   0.284273E+02 |   0.255180E-02 |   0.112522E+02 |   0.100000E-14
   2 |   0.145908E+00 |   0.982774E+00 |   0.143394E+00 |   0.111829E-02 |   0.216098E+01 |   0.100000E-14
   3 |   0.199506E+00 |   0.520575E-01 |   0.103858E-01 |   0.605832E-03 |   0.634231E+00 |   0.100000E-14
   4 |   0.263680E+00 |   0.642824E-02 |   0.169500E-02 |   0.429571E-03 |   0.318870E+00 |   0.100000E-14
   5 |   0.339110E+00 |   0.155610E-02 |   0.527688E-03 |   0.396509E-03 |   0.271676E+00 |   0.100000E-14
   6 |   0.699851E+00 |   0.102534E-02 |   0.717587E-03 |   0.455409E-03 |   0.358382E+00 |   0.100000E-14
   7 |   0.159032E+01 |   0.108296E-02 |   0.172226E-02 |   0.131414E-02 |   0.298417E+01 |   0.100000E-14
   8 |   0.271454E+01 |   0.361425E-02 |   0.981102E-02 |   0.858805E-02 |   0.127448E+03 |   0.100000E-14
   9 |  -0.266883E+00 |  -0.679961E+00 |   0.181470E+00 |   0.348750E-02 |   0.210171E+02 |   0.100000E-14
  10 |   0.194574E+00 |   0.215661E+00 |   0.419620E-01 |   0.171718E-02 |   0.509537E+01 |   0.100000E-14
  11 |   0.311386E+00 |   0.338261E-01 |   0.105330E-01 |   0.102541E-02 |   0.181693E+01 |   0.100000E-14
  12 |   0.358080E+00 |   0.168394E-01 |   0.602986E-02 |   0.689966E-03 |   0.822619E+00 |   0.100000E-14
  13 |   0.382246E+00 |   0.558716E-02 |   0.213567E-02 |   0.466270E-03 |   0.375681E+00 |   0.100000E-14
  14 |   0.274798E+00 |   0.357782E-02 |   0.983179E-03 |   0.351658E-03 |   0.213691E+00 |   0.100000E-14
  15 |   0.339245E+00 |   0.149280E-02 |   0.506426E-03 |   0.327532E-03 |   0.185375E+00 |   0.100000E-14
  16 |   0.551914E+00 |   0.355391E-03 |   0.196145E-03 |   0.244786E-03 |   0.103542E+00 |   0.100000E-14
  17 |   0.466730E+00 |   0.418609E-03 |   0.195377E-03 |   0.184735E-03 |   0.589716E-01 |   0.100000E-14
  18 |   0.547889E+00 |   0.203105E-03 |   0.111279E-03 |   0.992569E-04 |   0.170241E-01 |   0.100000E-14
  19 |   0.392676E+00 |   0.113406E-03 |   0.445317E-04 |   0.799845E-04 |   0.110549E-01 |   0.100000E-14
  20 |   0.459055E+00 |   0.466012E-04 |   0.213925E-04 |   0.686289E-04 |   0.813874E-02 |   0.100000E-14
  21 |   0.566520E+00 |   0.217162E-04 |   0.123026E-04 |   0.509252E-04 |   0.448135E-02 |   0.100000E-14
  22 |   0.471610E+00 |   0.223338E-04 |   0.105329E-04 |   0.361773E-04 |   0.226160E-02 |   0.100000E-14
  23 |   0.290967E+00 |   0.250846E-04 |   0.729878E-05 |   0.280625E-04 |   0.136081E-02 |   0.100000E-14
  24 |   0.313014E+00 |   0.134125E-04 |   0.419831E-05 |   0.251851E-04 |   0.109605E-02 |   0.100000E-14
  25 |   0.420552E+00 |   0.341715E-05 |   0.143709E-05 |   0.207211E-04 |   0.741939E-03 |   0.100000E-14
  26 |   0.511124E+00 |   0.147655E-05 |   0.754698E-06 |   0.133066E-04 |   0.305968E-03 |   0.100000E-14
  27 |   0.489451E+00 |   0.103844E-05 |   0.508267E-06 |   0.751721E-05 |   0.976465E-04 |   0.100000E-14
  28 |   0.409982E+00 |   0.638995E-06 |   0.261977E-06 |   0.547397E-05 |   0.517785E-04 |   0.100000E-14
  29 |   0.340398E+00 |   0.347235E-06 |   0.118198E-06 |   0.436579E-05 |   0.329359E-04 |   0.100000E-14
  30 |   0.528509E+00 |   0.689658E-07 |   0.364491E-07 |   0.262047E-05 |   0.118660E-04 |   0.100000E-14
  31 |   0.574019E+00 |   0.186945E-07 |   0.107310E-07 |   0.134606E-05 |   0.313092E-05 |   0.100000E-14
  32 |   0.578115E+00 |   0.787327E-08 |   0.455165E-08 |   0.681625E-06 |   0.802851E-06 |   0.100000E-14
  33 |   0.359305E+00 |   0.507461E-08 |   0.182333E-08 |   0.454383E-06 |   0.356769E-06 |   0.100000E-14
  34 |   0.376372E+00 |   0.159785E-08 |   0.601388E-09 |   0.307928E-06 |   0.163848E-06 |   0.100000E-14
  35 |   0.440556E+00 |   0.365718E-09 |   0.161119E-09 |   0.199742E-06 |   0.689419E-07 |   0.100000E-14
  36 |   0.243824E+00 |   0.452592E-09 |   0.110353E-09 |   0.136220E-06 |   0.320648E-07 |   0.100000E-14
  37 |   0.351908E+00 |   0.193538E-09 |   0.681076E-10 |   0.874602E-07 |   0.132180E-07 |   0.100000E-14
  38 |   0.381156E+00 |   0.928839E-10 |   0.354032E-10 |   0.710911E-07 |   0.873322E-08 |   0.100000E-14
  39 |   0.692123E+00 |   0.136984E-10 |   0.948095E-11 |   0.493273E-07 |   0.420453E-08 |   0.100000E-14
  40 |   0.638012E+00 |   0.494989E-11 |   0.315809E-11 |   0.290667E-07 |   0.145994E-08 |   0.100000E-14
  41 |   0.397468E+00 |   0.482236E-11 |   0.191673E-11 |   0.176290E-07 |   0.537030E-09 |   0.100000E-14
  42 |   0.353463E+00 |   0.302528E-11 |   0.106932E-11 |   0.114414E-07 |   0.226205E-09 |   0.100000E-14
  43 |   0.525035E+00 |   0.628415E-12 |   0.329940E-12 |   0.805720E-08 |   0.112179E-09 |   0.100000E-14
  44 |   0.577696E+00 |   0.183268E-12 |   0.105873E-12 |   0.553540E-08 |   0.529471E-10 |   0.100000E-14
  45 |   0.680889E+00 |   0.594165E-13 |   0.404561E-13 |   0.301833E-08 |   0.157427E-10 |   0.100000E-14
  46 |   0.452483E+00 |   0.564436E-13 |   0.255397E-13 |   0.210340E-08 |   0.764520E-11 |   0.100000E-14
  47 |   0.411702E+00 |   0.309692E-13 |   0.127501E-13 |   0.183211E-08 |   0.580027E-11 |   0.100000E-14
  48 |   0.394926E+00 |   0.179862E-13 |   0.710322E-14 |   0.137650E-08 |   0.327413E-11 |   0.100000E-14
  49 |   0.244388E+00 |   0.193347E-13 |   0.472517E-14 |   0.116314E-08 |   0.233781E-11 |   0.100000E-14
  50 |   0.583334E+00 |   0.367608E-14 |   0.214438E-14 |   0.600121E-09 |   0.622332E-12 |   0.100000E-14
  51 |   0.484790E+00 |   0.179414E-14 |   0.869780E-15 |   0.414285E-09 |   0.296580E-12 |   0.100000E-14
  52 |   0.368868E+00 |   0.127145E-14 |   0.468998E-15 |   0.304290E-09 |   0.159999E-12 |   0.100000E-14
  53 |   0.294313E+00 |   0.524920E-15 |   0.154491E-15 |   0.232757E-09 |   0.936158E-13 |   0.100000E-14
  54 |   0.348636E+00 |   0.297603E-15 |   0.103755E-15 |   0.132446E-09 |   0.303126E-13 |   0.100000E-14
  55 |   0.564582E+00 |   0.510808E-16 |   0.288393E-16 |   0.678873E-10 |   0.796380E-14 |   0.100000E-14
  56 |   0.494818E+00 |   0.243316E-16 |   0.120397E-16 |   0.455676E-10 |   0.358802E-14 |   0.100000E-14
  57 |   0.617839E+00 |   0.421775E-17 |   0.260589E-17 |   0.228054E-10 |   0.898709E-15 |   0.100000E-14

 Charges are converged, EXIT

%%%% DENSITY %%%%%%%%%%%%%%%%%%%%%%%%%%%%%%%%%%%%%%%%%%%%%%%%%%%%%%%%%%%%%%%%%%%

 density label              = velectrostatic                                    

 integral of density        =   0.1685565268E-12

%%%% CHARGES %%%%%%%%%%%%%%%%%%%%%%%%%%%%%%%%%%%%%%%%%%%%%%%%%%%%%%%%%%%%%%%%%%%

 total number of charges    =             11

 total charge               =      0.0000000

%%%% DENSITY %%%%%%%%%%%%%%%%%%%%%%%%%%%%%%%%%%%%%%%%%%%%%%%%%%%%%%%%%%%%%%%%%%%

 density label              = vsoftcavity                                       

 integral of density        =    22.26390902    

%%%% DENSITY %%%%%%%%%%%%%%%%%%%%%%%%%%%%%%%%%%%%%%%%%%%%%%%%%%%%%%%%%%%%%%%%%%%

 density label              = dvtot                                             

 integral of density        =    22.26390902    

%%%% ELECTRONS %%%%%%%%%%%%%%%%%%%%%%%%%%%%%%%%%%%%%%%%%%%%%%%%%%%%%%%%%%%%%%%%%

 number of electrons        =              8

 total electronic charge    =      8.0000000

%%%% ELECTRONS %%%%%%%%%%%%%%%%%%%%%%%%%%%%%%%%%%%%%%%%%%%%%%%%%%%%%%%%%%%%%%%%%

 number of electrons        =              8

 total electronic charge    =      8.0000000

%%%% CHARGES %%%%%%%%%%%%%%%%%%%%%%%%%%%%%%%%%%%%%%%%%%%%%%%%%%%%%%%%%%%%%%%%%%%

 total number of charges    =             11

 total charge               =     -0.0000000

%%%% CHARGES %%%%%%%%%%%%%%%%%%%%%%%%%%%%%%%%%%%%%%%%%%%%%%%%%%%%%%%%%%%%%%%%%%%

 total number of charges    =             11

 total charge               =     -0.0000000

%%%% BOUNDARY %%%%%%%%%%%%%%%%%%%%%%%%%%%%%%%%%%%%%%%%%%%%%%%%%%%%%%%%%%%%%%%%%%

 boundary label             = solvent             
 boundary mode              = electronic          

 using the optimal SCCS function:
 rhomax                     =      0.0050000
 rhomin                     =      0.0001000

 volume of the QM region    =    227.8632596

 surface of the QM region   =    180.4357657

%%%% DENSITY %%%%%%%%%%%%%%%%%%%%%%%%%%%%%%%%%%%%%%%%%%%%%%%%%%%%%%%%%%%%%%%%%%%

 density label              = vreference                                        

 integral of density        =   0.6947528972E-13

%%%% COMPUTE ELECTROSTATIC POTENTIAL %%%%%%%%%%%%%%%%%%%%%%%%%%%%%%%%%%%%%%%%%%%

 Warning: Bad guess with residual norm =   0.112534E+02, reset to no guess

   i |      alpha     |       pAp      |      rzold     |    delta_qm    |    delta_en    |       tol
 ---------------------------------------------------------------------------------------------------------
   1 |   0.998974E+00 |   0.284568E+02 |   0.284276E+02 |   0.254963E-02 |   0.112331E+02 |   0.100000E-14
   2 |   0.145898E+00 |   0.982992E+00 |   0.143416E+00 |   0.111615E-02 |   0.215273E+01 |   0.100000E-14
   3 |   0.199484E+00 |   0.520455E-01 |   0.103822E-01 |   0.604626E-03 |   0.631710E+00 |   0.100000E-14
   4 |   0.263635E+00 |   0.642447E-02 |   0.169371E-02 |   0.428783E-03 |   0.317701E+00 |   0.100000E-14
   5 |   0.338605E+00 |   0.155538E-02 |   0.526658E-03 |   0.395753E-03 |   0.270640E+00 |   0.100000E-14
   6 |   0.699087E+00 |   0.102170E-02 |   0.714259E-03 |   0.453781E-03 |   0.355825E+00 |   0.100000E-14
   7 |   0.159330E+01 |   0.107469E-02 |   0.171231E-02 |   0.130847E-02 |   0.295851E+01 |   0.100000E-14
   8 |   0.274446E+01 |   0.356621E-02 |   0.978733E-02 |   0.865862E-02 |   0.129551E+03 |   0.100000E-14
   9 |  -0.261220E+00 |  -0.708832E+00 |   0.185161E+00 |   0.344513E-02 |   0.205095E+02 |   0.100000E-14
  10 |   0.195010E+00 |   0.210845E+00 |   0.411168E-01 |   0.170176E-02 |   0.500429E+01 |   0.100000E-14
  11 |   0.311969E+00 |   0.332339E-01 |   0.103679E-01 |   0.101700E-02 |   0.178727E+01 |   0.100000E-14
  12 |   0.358882E+00 |   0.165789E-01 |   0.594986E-02 |   0.685317E-03 |   0.811571E+00 |   0.100000E-14
  13 |   0.381877E+00 |   0.554086E-02 |   0.211593E-02 |   0.464762E-03 |   0.373254E+00 |   0.100000E-14
  14 |   0.274276E+00 |   0.355918E-02 |   0.976199E-03 |   0.351399E-03 |   0.213376E+00 |   0.100000E-14
  15 |   0.340495E+00 |   0.147379E-02 |   0.501817E-03 |   0.326740E-03 |   0.184480E+00 |   0.100000E-14
  16 |   0.552260E+00 |   0.353096E-03 |   0.195000E-03 |   0.243582E-03 |   0.102526E+00 |   0.100000E-14
  17 |   0.465921E+00 |   0.416316E-03 |   0.193970E-03 |   0.183761E-03 |   0.583511E-01 |   0.100000E-14
  18 |   0.548135E+00 |   0.201159E-03 |   0.110262E-03 |   0.988834E-04 |   0.168963E-01 |   0.100000E-14
  19 |   0.392690E+00 |   0.112206E-03 |   0.440620E-04 |   0.797778E-04 |   0.109979E-01 |   0.100000E-14
  20 |   0.459859E+00 |   0.461091E-04 |   0.212037E-04 |   0.684315E-04 |   0.809199E-02 |   0.100000E-14
  21 |   0.567153E+00 |   0.215839E-04 |   0.122414E-04 |   0.507321E-04 |   0.444743E-02 |   0.100000E-14
  22 |   0.472147E+00 |   0.221330E-04 |   0.104500E-04 |   0.359490E-04 |   0.223315E-02 |   0.100000E-14
  23 |   0.292204E+00 |   0.245160E-04 |   0.716367E-05 |   0.278301E-04 |   0.133836E-02 |   0.100000E-14
  24 |   0.310752E+00 |   0.133434E-04 |   0.414647E-05 |   0.249616E-04 |   0.107668E-02 |   0.100000E-14
  25 |   0.419732E+00 |   0.338504E-05 |   0.142081E-05 |   0.205649E-04 |   0.730797E-03 |   0.100000E-14
  26 |   0.511253E+00 |   0.145759E-05 |   0.745195E-06 |   0.132312E-04 |   0.302514E-03 |   0.100000E-14
  27 |   0.489331E+00 |   0.102628E-05 |   0.502192E-06 |   0.746223E-05 |   0.962235E-04 |   0.100000E-14
  28 |   0.409654E+00 |   0.631913E-06 |   0.258866E-06 |   0.541530E-05 |   0.506744E-04 |   0.100000E-14
  29 |   0.339916E+00 |   0.342382E-06 |   0.116381E-06 |   0.432184E-05 |   0.322761E-04 |   0.100000E-14
  30 |   0.529105E+00 |   0.676607E-07 |   0.357996E-07 |   0.259641E-05 |   0.116490E-04 |   0.100000E-14
  31 |   0.573883E+00 |   0.184201E-07 |   0.105710E-07 |   0.133343E-05 |   0.307246E-05 |   0.100000E-14
  32 |   0.577687E+00 |   0.775251E-08 |   0.447853E-08 |   0.677032E-06 |   0.792066E-06 |   0.100000E-14
  33 |   0.359968E+00 |   0.497944E-08 |   0.179244E-08 |   0.450105E-06 |   0.350083E-06 |   0.100000E-14
  34 |   0.378116E+00 |   0.156801E-08 |   0.592890E-09 |   0.306456E-06 |   0.162286E-06 |   0.100000E-14
  35 |   0.487266E+00 |   0.316238E-09 |   0.154092E-09 |   0.184343E-06 |   0.587218E-07 |   0.100000E-14
  36 |   0.421735E+00 |   0.178598E-09 |   0.753212E-10 |   0.114327E-06 |   0.225861E-07 |   0.100000E-14
  37 |   0.308895E+00 |   0.176177E-09 |   0.544201E-10 |   0.801824E-07 |   0.111097E-07 |   0.100000E-14
  38 |   0.236789E+00 |   0.176041E-09 |   0.416845E-10 |   0.709292E-07 |   0.869348E-08 |   0.100000E-14
  39 |   0.663446E+00 |   0.147390E-10 |   0.977849E-11 |   0.493318E-07 |   0.420531E-08 |   0.100000E-14
  40 |   0.638347E+00 |   0.493499E-11 |   0.315024E-11 |   0.288578E-07 |   0.143903E-08 |   0.100000E-14
  41 |   0.398772E+00 |   0.473189E-11 |   0.188694E-11 |   0.174410E-07 |   0.525637E-09 |   0.100000E-14
  42 |   0.351090E+00 |   0.299062E-11 |   0.104998E-11 |   0.113271E-07 |   0.221709E-09 |   0.100000E-14
  43 |   0.523646E+00 |   0.620737E-12 |   0.325047E-12 |   0.797067E-08 |   0.109783E-09 |   0.100000E-14
  44 |   0.576184E+00 |   0.180536E-12 |   0.104022E-12 |   0.545828E-08 |   0.514819E-10 |   0.100000E-14
  45 |   0.656455E+00 |   0.608574E-13 |   0.399501E-13 |   0.316343E-08 |   0.172926E-10 |   0.100000E-14
  46 |   0.322036E+00 |   0.933676E-13 |   0.300677E-13 |   0.208203E-08 |   0.749062E-11 |   0.100000E-14
  47 |   0.290841E+00 |   0.704704E-13 |   0.204956E-13 |   0.195532E-08 |   0.660665E-11 |   0.100000E-14
  48 |   0.424142E+00 |   0.204816E-13 |   0.868710E-14 |   0.154399E-08 |   0.411940E-11 |   0.100000E-14
  49 |   0.391461E+00 |   0.122703E-13 |   0.480334E-14 |   0.117706E-08 |   0.239411E-11 |   0.100000E-14
  50 |   0.610458E+00 |   0.314751E-14 |   0.192142E-14 |   0.617250E-09 |   0.658364E-12 |   0.100000E-14
  51 |   0.242671E+00 |   0.632505E-14 |   0.153490E-14 |   0.501709E-09 |   0.434957E-12 |   0.100000E-14
  52 |   0.427825E+00 |   0.158249E-14 |   0.677030E-15 |   0.338585E-09 |   0.198097E-12 |   0.100000E-14
  53 |   0.360394E+00 |   0.657459E-15 |   0.236944E-15 |   0.251037E-09 |   0.108898E-12 |   0.100000E-14
  54 |   0.546694E+00 |   0.145956E-15 |   0.797931E-16 |   0.132311E-09 |   0.302508E-13 |   0.100000E-14
  55 |   0.582503E+00 |   0.478098E-16 |   0.278494E-16 |   0.673399E-10 |   0.783590E-14 |   0.100000E-14
  56 |   0.493636E+00 |   0.241136E-16 |   0.119033E-16 |   0.451962E-10 |   0.352977E-14 |   0.100000E-14
  57 |   0.575638E+00 |   0.453500E-17 |   0.261052E-17 |   0.241383E-10 |   0.100683E-14 |   0.100000E-14
  58 |   0.187636E+00 |   0.788208E-17 |   0.147896E-17 |   0.174540E-10 |   0.526422E-15 |   0.100000E-14

 Charges are converged, EXIT

%%%% DENSITY %%%%%%%%%%%%%%%%%%%%%%%%%%%%%%%%%%%%%%%%%%%%%%%%%%%%%%%%%%%%%%%%%%%

 density label              = velectrostatic                                    

 integral of density        =   0.3716533254E-12

%%%% CHARGES %%%%%%%%%%%%%%%%%%%%%%%%%%%%%%%%%%%%%%%%%%%%%%%%%%%%%%%%%%%%%%%%%%%

 total number of charges    =             11

 total charge               =     -0.0000000

%%%% DENSITY %%%%%%%%%%%%%%%%%%%%%%%%%%%%%%%%%%%%%%%%%%%%%%%%%%%%%%%%%%%%%%%%%%%

 density label              = vsoftcavity                                       

 integral of density        =    22.08483354    

%%%% DENSITY %%%%%%%%%%%%%%%%%%%%%%%%%%%%%%%%%%%%%%%%%%%%%%%%%%%%%%%%%%%%%%%%%%%

 density label              = dvtot                                             

 integral of density        =    22.08483354    

%%%% ELECTRONS %%%%%%%%%%%%%%%%%%%%%%%%%%%%%%%%%%%%%%%%%%%%%%%%%%%%%%%%%%%%%%%%%

 number of electrons        =              8

 total electronic charge    =      8.0000000

%%%% ELECTRONS %%%%%%%%%%%%%%%%%%%%%%%%%%%%%%%%%%%%%%%%%%%%%%%%%%%%%%%%%%%%%%%%%

 number of electrons        =              8

 total electronic charge    =      8.0000000

%%%% CHARGES %%%%%%%%%%%%%%%%%%%%%%%%%%%%%%%%%%%%%%%%%%%%%%%%%%%%%%%%%%%%%%%%%%%

 total number of charges    =             11

 total charge               =     -0.0000000

%%%% CHARGES %%%%%%%%%%%%%%%%%%%%%%%%%%%%%%%%%%%%%%%%%%%%%%%%%%%%%%%%%%%%%%%%%%%

 total number of charges    =             11

 total charge               =     -0.0000000

%%%% BOUNDARY %%%%%%%%%%%%%%%%%%%%%%%%%%%%%%%%%%%%%%%%%%%%%%%%%%%%%%%%%%%%%%%%%%

 boundary label             = solvent             
 boundary mode              = electronic          

 using the optimal SCCS function:
 rhomax                     =      0.0050000
 rhomin                     =      0.0001000

 volume of the QM region    =    227.8632596

 surface of the QM region   =    180.4357657

%%%% DENSITY %%%%%%%%%%%%%%%%%%%%%%%%%%%%%%%%%%%%%%%%%%%%%%%%%%%%%%%%%%%%%%%%%%%

 density label              = dvtot                                             

 integral of density        =    22.08483354    

%%%% DENSITY %%%%%%%%%%%%%%%%%%%%%%%%%%%%%%%%%%%%%%%%%%%%%%%%%%%%%%%%%%%%%%%%%%%

 density label              = vreference                                        

 integral of density        =   0.6947528972E-13

%%%% DENSITY %%%%%%%%%%%%%%%%%%%%%%%%%%%%%%%%%%%%%%%%%%%%%%%%%%%%%%%%%%%%%%%%%%%

 density label              = velectrostatic                                    

 integral of density        =   0.3716533254E-12

%%%% CHARGES %%%%%%%%%%%%%%%%%%%%%%%%%%%%%%%%%%%%%%%%%%%%%%%%%%%%%%%%%%%%%%%%%%%

 total number of charges    =             11

 total charge               =     -0.0000000

%%%% DENSITY %%%%%%%%%%%%%%%%%%%%%%%%%%%%%%%%%%%%%%%%%%%%%%%%%%%%%%%%%%%%%%%%%%%

 density label              = vsoftcavity                                       

 integral of density        =    22.08483354    
