
     Program PWSCF v.6.7MaX starts on 22Jan2021 at 11:58:16 

     This program is part of the open-source Quantum ESPRESSO suite
     for quantum simulation of materials; please cite
         "P. Giannozzi et al., J. Phys.:Condens. Matter 21 395502 (2009);
         "P. Giannozzi et al., J. Phys.:Condens. Matter 29 465901 (2017);
          URL http://www.quantum-espresso.org", 
     in publications or presentations arising from this work. More details at
     http://www.quantum-espresso.org/quote

     Parallel version (MPI), running on     1 processors

     MPI processes distributed on     1 nodes
     Reading input from pw.in

     Current dimensions of program PWSCF are:
     Max number of different atomic species (ntypx) = 10
     Max number of k-points (npk) =  40000
     Max angular momentum in pseudopotentials (lmaxx) =  3
     file H.pbe-rrkjus.UPF: wavefunction(s)  1S renormalized
     file O.pbe-rrkjus.UPF: wavefunction(s)  2S renormalized

     gamma-point specific algorithms are used

     Subspace diagonalization in iterative solution of the eigenvalue problem:
     a serial algorithm will be used


     G-vector sticks info
     --------------------
     sticks:   dense  smooth     PW     G-vecs:    dense   smooth      PW
     Sum        9549    3809    949               701475   177509   22119



     bravais-lattice index     =            1
     lattice parameter (alat)  =      20.0000  a.u.
     unit-cell volume          =    8000.0000 (a.u.)^3
     number of atoms/cell      =            3
     number of atomic types    =            2
     number of electrons       =         8.00
     number of Kohn-Sham states=            4
     kinetic-energy cutoff     =      30.0000  Ry
     charge density cutoff     =     300.0000  Ry
     scf convergence threshold =      1.0E-08
     mixing beta               =       0.3000
     number of iterations used =            8  plain     mixing
     Exchange-correlation= SLA  PW   PBE  PBE
                           (   1   4   3   4   0   0   0)


     Environ Module
     ==============

     Plese cite
         O. Andreussi, I. Dabo and N. Marzari, J. Chem. Phys. 136, 064102 (2012)         
     in publications or presentations arising from this work.

     compensation onset threshold      =               0.1000E+03 
     switching function adopted        =                     SCCS 
     density limit for vacuum region   =               0.5000E-02 
     density limit for bulk solvent    =               0.1000E-03 

     Electrostatic Setup
     -------------------
     electrostatic problem to solve    = generalized              
     numerical solver adopted          = cg                       
     type of auxiliary density adopted = none                     
     type of core tool for poisson     = fft                      



     celldm(1)=  20.000000  celldm(2)=   0.000000  celldm(3)=   0.000000
     celldm(4)=   0.000000  celldm(5)=   0.000000  celldm(6)=   0.000000

     crystal axes: (cart. coord. in units of alat)
               a(1) = (   1.000000   0.000000   0.000000 )  
               a(2) = (   0.000000   1.000000   0.000000 )  
               a(3) = (   0.000000   0.000000   1.000000 )  

     reciprocal axes: (cart. coord. in units 2 pi/alat)
               b(1) = (  1.000000  0.000000  0.000000 )  
               b(2) = (  0.000000  1.000000  0.000000 )  
               b(3) = (  0.000000  0.000000  1.000000 )  


     PseudoPot. # 1 for H  read from file:
     /Users/gabrielmedrano/Desktop/q-e/Environ/tests/../..//pseudo/H.pbe-rrkjus.UPF
     MD5 check sum: 2d52a7f45632fd764c17cc6affed14c8
     Pseudo is Ultrasoft, Zval =  1.0
     Generated by new atomic code, or converted to UPF format
     Using radial grid of 1061 points,  2 beta functions with: 
                l(1) =   0
                l(2) =   0
     Q(r) pseudized with 0 coefficients 


     PseudoPot. # 2 for O  read from file:
     /Users/gabrielmedrano/Desktop/q-e/Environ/tests/../..//pseudo/O.pbe-rrkjus.UPF
     MD5 check sum: fadcf19ee70a498d3030e2e79cf929a4
     Pseudo is Ultrasoft, Zval =  6.0
     Generated by new atomic code, or converted to UPF format
     Using radial grid of 1269 points,  4 beta functions with: 
                l(1) =   0
                l(2) =   0
                l(3) =   1
                l(4) =   1
     Q(r) pseudized with 0 coefficients 


     atomic species   valence    mass     pseudopotential
        H              1.00     1.00000     H ( 1.00)
        O              6.00    16.00000     O ( 1.00)

     No symmetry found



   Cartesian axes

     site n.     atom                  positions (alat units)
         1           O   tau(   1) = (   0.5895000   0.6025000   0.5750000  )
         2           H   tau(   2) = (   0.6725000   0.5610000   0.5750000  )
         3           H   tau(   3) = (   0.5280000   0.5330000   0.5750000  )

     number of k points=     1
                       cart. coord. in units 2pi/alat
        k(    1) = (   0.0000000   0.0000000   0.0000000), wk =   2.0000000

     Dense  grid:   350738 G-vectors     FFT dimensions: ( 120, 120, 120)

     Smooth grid:    88755 G-vectors     FFT dimensions: (  72,  72,  72)

     Estimated max dynamical RAM per process >     530.91 MB

     Initial potential from superposition of free atoms

     starting charge    7.80759, renormalised to    8.00000

     negative rho (up, down):  7.936E-04 0.000E+00
     Starting wfcs are    6 randomized atomic wfcs

     total cpu time spent up to now is        4.4 secs

     Self-consistent Calculation

     iteration #  1     ecut=    30.00 Ry     beta= 0.30
     Davidson diagonalization with overlap
     ethr =  1.00E-02,  avg # of iterations =  2.0

     negative rho (up, down):  5.566E-04 0.000E+00

     add environment contribution to local potential
     polarization accuracy = 6.9E-14, # of iterations =  37

     total cpu time spent up to now is       13.4 secs

     total energy              =     -34.29681090 Ry
     estimated scf accuracy    <       0.67469661 Ry
     electrostatic embedding   =       0.00000000 Ry
     correction to one-el term =      -0.00000000 Ry

     iteration #  2     ecut=    30.00 Ry     beta= 0.30
     Davidson diagonalization with overlap
     ethr =  8.43E-03,  avg # of iterations =  1.0

     negative rho (up, down):  6.722E-04 0.000E+00

     add environment contribution to local potential
     polarization accuracy = 3.1E-14, # of iterations =  50

     total cpu time spent up to now is       24.9 secs

     total energy              =     -34.26548536 Ry
     estimated scf accuracy    <       0.16797705 Ry
     electrostatic embedding   =      -0.04590663 Ry
     correction to one-el term =      -0.82127183 Ry

     iteration #  3     ecut=    30.00 Ry     beta= 0.30
     Davidson diagonalization with overlap
     ethr =  2.10E-03,  avg # of iterations =  2.0

     negative rho (up, down):  1.653E-03 0.000E+00

     add environment contribution to local potential
     polarization accuracy = 8.6E-14, # of iterations =  54

     total cpu time spent up to now is       37.3 secs

     total energy              =     -34.28620215 Ry
     estimated scf accuracy    <       0.03782020 Ry
     electrostatic embedding   =      -0.03664656 Ry
     correction to one-el term =      -0.46578559 Ry

     iteration #  4     ecut=    30.00 Ry     beta= 0.30
     Davidson diagonalization with overlap
     ethr =  4.73E-04,  avg # of iterations =  2.0

     negative rho (up, down):  1.672E-03 0.000E+00

     add environment contribution to local potential
     polarization accuracy = 6.5E-14, # of iterations =  54

     total cpu time spent up to now is       49.3 secs

     total energy              =     -34.29228147 Ry
     estimated scf accuracy    <       0.01681784 Ry
     electrostatic embedding   =      -0.03024772 Ry
     correction to one-el term =      -0.21438137 Ry

     iteration #  5     ecut=    30.00 Ry     beta= 0.30
     Davidson diagonalization with overlap
     ethr =  2.10E-04,  avg # of iterations =  2.0

     negative rho (up, down):  9.375E-04 0.000E+00

     add environment contribution to local potential
     polarization accuracy = 4.5E-14, # of iterations =  54

     total cpu time spent up to now is       61.2 secs

     total energy              =     -34.29476240 Ry
     estimated scf accuracy    <       0.00111037 Ry
     electrostatic embedding   =      -0.03200048 Ry
     correction to one-el term =      -0.10983175 Ry

     iteration #  6     ecut=    30.00 Ry     beta= 0.30
     Davidson diagonalization with overlap
     ethr =  1.39E-05,  avg # of iterations =  2.0

     negative rho (up, down):  1.553E-03 0.000E+00

     add environment contribution to local potential
     polarization accuracy = 2.5E-14, # of iterations =  54

     total cpu time spent up to now is       73.2 secs

     total energy              =     -34.29525050 Ry
     estimated scf accuracy    <       0.00013397 Ry
     electrostatic embedding   =      -0.03361447 Ry
     correction to one-el term =      -0.10999877 Ry

     iteration #  7     ecut=    30.00 Ry     beta= 0.30
     Davidson diagonalization with overlap
     ethr =  1.67E-06,  avg # of iterations =  1.0

     negative rho (up, down):  1.149E-03 0.000E+00

     add environment contribution to local potential
     polarization accuracy = 8.7E-14, # of iterations =  53

     total cpu time spent up to now is       85.5 secs

     total energy              =     -34.29531400 Ry
     estimated scf accuracy    <       0.00000563 Ry
     electrostatic embedding   =      -0.03427434 Ry
     correction to one-el term =      -0.07516205 Ry

     iteration #  8     ecut=    30.00 Ry     beta= 0.30
     Davidson diagonalization with overlap
     ethr =  7.04E-08,  avg # of iterations =  2.0

     negative rho (up, down):  7.549E-04 0.000E+00

     add environment contribution to local potential
     polarization accuracy = 7.0E-14, # of iterations =  53

     total cpu time spent up to now is       97.8 secs

     total energy              =     -34.29531612 Ry
     estimated scf accuracy    <       0.00000306 Ry
     electrostatic embedding   =      -0.03435434 Ry
     correction to one-el term =      -0.07472158 Ry

     iteration #  9     ecut=    30.00 Ry     beta= 0.30
     Davidson diagonalization with overlap
     ethr =  3.83E-08,  avg # of iterations =  2.0

     negative rho (up, down):  5.435E-04 0.000E+00

     add environment contribution to local potential
     polarization accuracy = 7.8E-14, # of iterations =  53

     total cpu time spent up to now is      109.5 secs

     total energy              =     -34.29531708 Ry
     estimated scf accuracy    <       0.00000132 Ry
     electrostatic embedding   =      -0.03442499 Ry
     correction to one-el term =      -0.07560431 Ry

     iteration # 10     ecut=    30.00 Ry     beta= 0.30
     Davidson diagonalization with overlap
     ethr =  1.66E-08,  avg # of iterations =  2.0

     negative rho (up, down):  3.941E-04 0.000E+00

     add environment contribution to local potential
     polarization accuracy = 8.0E-14, # of iterations =  53

     total cpu time spent up to now is      121.5 secs

     total energy              =     -34.29531762 Ry
     estimated scf accuracy    <       0.00000020 Ry
     electrostatic embedding   =      -0.03450087 Ry
     correction to one-el term =      -0.07574128 Ry

     iteration # 11     ecut=    30.00 Ry     beta= 0.30
     Davidson diagonalization with overlap
     ethr =  2.55E-09,  avg # of iterations =  2.0

     negative rho (up, down):  3.111E-04 0.000E+00

     add environment contribution to local potential
     polarization accuracy = 5.8E-14, # of iterations =  53

     total cpu time spent up to now is      133.4 secs

     total energy              =     -34.29531797 Ry
     estimated scf accuracy    <       0.00000004 Ry
     electrostatic embedding   =      -0.03456468 Ry
     correction to one-el term =      -0.07615131 Ry

     iteration # 12     ecut=    30.00 Ry     beta= 0.30
     Davidson diagonalization with overlap
     ethr =  4.79E-10,  avg # of iterations =  2.0

     negative rho (up, down):  2.121E-04 0.000E+00

     the potential shift due to the Gaussian-smeared nuclei is    -0.0214 ev

     total cpu time spent up to now is      135.8 secs

     End of self-consistent calculation

          k = 0.0000 0.0000 0.0000 ( 11060 PWs)   bands (ev):

   -24.6099 -12.3748  -8.8140  -6.8494

     highest occupied level (ev):    -6.8494

!    total energy              =     -34.29531776 Ry
     estimated scf accuracy    <          6.7E-09 Ry

     The total energy is the sum of the following terms:
     one-electron contribution =     -63.83442155 Ry
     hartree contribution      =      33.49676993 Ry
     xc contribution           =      -8.40425486 Ry
     ewald contribution        =       4.55735774 Ry
     electrostatic embedding   =      -0.03457827 Ry
     correction to one-el term =      -0.07619077 Ry

     convergence has been achieved in  12 iterations
 forces lc
       1    0.0487   -0.2525    0.0000
       2    0.0400   -0.0391   -0.0000
       3   -0.0226   -0.0512    0.0000

     Forces acting on atoms (cartesian axes, Ry/au):

     atom    1 type  2   force =     0.00224717   -0.01210546    0.00000003
     atom    2 type  1   force =    -0.00997385    0.00430650   -0.00000001
     atom    3 type  1   force =     0.00772668    0.00779897   -0.00000002

     Total force =     0.019752     Total SCF correction =     0.000099

     Writing output data file /Users/gabrielmedrano/Desktop/q-e/Environ/tests/../..//tempdir/pwscf.save/

     init_run     :      3.89s CPU      4.32s WALL (       1 calls)
     electrons    :    125.23s CPU    131.45s WALL (       1 calls)
     forces       :      0.72s CPU      0.78s WALL (       1 calls)

     Called by init_run:
     wfcinit      :      0.04s CPU      0.05s WALL (       1 calls)
     potinit      :      1.68s CPU      1.81s WALL (       1 calls)
     hinit0       :      1.65s CPU      1.76s WALL (       1 calls)

     Called by electrons:
     c_bands      :      0.78s CPU      0.84s WALL (      12 calls)
     sum_band     :      6.44s CPU      4.47s WALL (      12 calls)
     v_of_rho     :      7.55s CPU      8.78s WALL (      13 calls)
     newd         :      2.62s CPU      3.36s WALL (      13 calls)
     mix_rho      :      1.11s CPU      1.24s WALL (      12 calls)

     Called by c_bands:
     init_us_2    :      0.04s CPU      0.04s WALL (      25 calls)
     regterg      :      0.73s CPU      0.79s WALL (      12 calls)

     Called by *egterg:
     rdiaghg      :      0.00s CPU      0.00s WALL (      34 calls)
     h_psi        :      0.68s CPU      0.74s WALL (      35 calls)
     s_psi        :      0.02s CPU      0.01s WALL (      35 calls)
     g_psi        :      0.00s CPU      0.00s WALL (      22 calls)

     Called by h_psi:
     h_psi:calbec :      0.01s CPU      0.01s WALL (      35 calls)
     vloc_psi     :      0.63s CPU      0.64s WALL (      35 calls)
     add_vuspsi   :      0.04s CPU      0.09s WALL (      35 calls)

     General routines
     calbec       :      0.01s CPU      0.01s WALL (      51 calls)
     fft          :     73.32s CPU     77.14s WALL (    1492 calls)
     ffts         :      0.14s CPU      0.14s WALL (      25 calls)
     fftw         :      0.58s CPU      0.58s WALL (     158 calls)
     interpolate  :      0.69s CPU      0.77s WALL (      13 calls)

     Parallel routines
     fft_scatt_xy :      7.17s CPU      7.22s WALL (    1347 calls)
     fft_scatt_yz :      9.69s CPU      9.75s WALL (    1347 calls)

     Environ routines
     calc_eelect  :      0.06s CPU      0.06s WALL (      24 calls)
     calc_velect  :     90.13s CPU     95.10s WALL (      22 calls)
     dielectric   :      2.93s CPU      3.15s WALL (      14 calls)
     calc_felect  :      0.19s CPU      0.20s WALL (       1 calls)

     PWSCF        :   2m 9.90s CPU   2m16.71s WALL


   This run was terminated on:  12: 0:33  22Jan2021            

=------------------------------------------------------------------------------=
   JOB DONE.
=------------------------------------------------------------------------------=
 Calling electrostatic_initbase now
 electrolyte_distance:    0.0000000000000000     
 sc_distance:    0.0000000000000000     
 velectrostatic started
 vreference created

%%%% IONS %%%%%%%%%%%%%%%%%%%%%%%%%%%%%%%%%%%%%%%%%%%%%%%%%%%%%%%%%%%%%%%%%%%%%%
 number of ions             =          3
 ionic center of charge     =      0.5921875     0.5886250     0.5750000
 total ionic charge         =     -8.0000000
 ionic dipole               =      0.0000000     0.0000000     0.0000000
 ionic quadrupole (pc)      =     -4.2453875    -2.0049500     0.0000000
 ionic quadrupole (gauss)   =     -5.2453875    -3.0049500    -1.0000000
 ion   1 type =  2 coordinates =     11.7900000    12.0500000    11.5000000
 ion   2 type =  1 coordinates =     13.4500000    11.2200000    11.5000000
 ion   3 type =  1 coordinates =     10.5600000    10.6600000    11.5000000

%%%% SYSTEM %%%%%%%%%%%%%%%%%%%%%%%%%%%%%%%%%%%%%%%%%%%%%%%%%%%%%%%%%%%%%%%%%%%%
 system is built from all present ionic types
 system defined dimension   =  0 
 system defined axis        =  3 
 system center              =      0.5921875     0.5886250     0.5750000 
 system width               =      0.0849363 

%%%% IONS %%%%%%%%%%%%%%%%%%%%%%%%%%%%%%%%%%%%%%%%%%%%%%%%%%%%%%%%%%%%%%%%%%%%%%
 number of ions             =          3
 ionic center of charge     =      0.5921875     0.5886250     0.5750000
 total ionic charge         =     -8.0000000
 ionic dipole               =      0.0000000     0.0000000     0.0000000
 ionic quadrupole (pc)      =     -4.2453875    -2.0049500     0.0000000
 ionic quadrupole (gauss)   =     -5.2453875    -3.0049500    -1.0000000
 ion   1 type =  2 coordinates =     11.7900000    12.0500000    11.5000000
 ion   2 type =  1 coordinates =     13.4500000    11.2200000    11.5000000
 ion   3 type =  1 coordinates =     10.5600000    10.6600000    11.5000000

%%%% SYSTEM %%%%%%%%%%%%%%%%%%%%%%%%%%%%%%%%%%%%%%%%%%%%%%%%%%%%%%%%%%%%%%%%%%%%
 system is built from all present ionic types
 system defined dimension   =  0 
 system defined axis        =  3 
 system center              =      0.5921875     0.5886250     0.5750000 
 system width               =      0.0849363 

%%%% ELECTRONS %%%%%%%%%%%%%%%%%%%%%%%%%%%%%%%%%%%%%%%%%%%%%%%%%%%%%%%%%%%%%%%%%
 number of electrons        =          8
 total electronic charge    =      8.0000000

%%%% ELECTRONS %%%%%%%%%%%%%%%%%%%%%%%%%%%%%%%%%%%%%%%%%%%%%%%%%%%%%%%%%%%%%%%%%
 number of electrons        =          8
 total electronic charge    =      8.0000000

%%%% BOUNDARY %%%%%%%%%%%%%%%%%%%%%%%%%%%%%%%%%%%%%%%%%%%%%%%%%%%%%%%%%%%%%%%%%%
 boundary label             = solvent              
 boundary mode              = electronic           
 boundary is built as a function of a smooth density
 function type              =  1 
 using the optimal SCCS function with parameters 
 rhomax                     =      0.0050000 
 rhomin                     =      0.0001000 
 volume of the QM region    =    479.9702285 
 surface of the QM region   =    281.4538971 

%%%% DIELECTRIC %%%%%%%%%%%%%%%%%%%%%%%%%%%%%%%%%%%%%%%%%%%%%%%%%%%%%%%%%%%%%%%%%
 dielectric build in the presence of dielectric regions
 environment bulk permitt.  =      1.0000000 
 number of dielec. regions  =    1 

%%%% FUNCTIONS %%%%%%%%%%%%%%%%%%%%%%%%%%%%%%%%%%%%%%%%%%%%%%%%%%%%%%%%%%%%%%%%%
 number of functions        =          1
 Scaled ERFC function, type = 4 
 number                     =   1 
 dimensionality             = 0 
 axis                       = 3 
 width                      =     6.000000 
 spread                     =     0.500000 
 max value                  =   100.000000 
 dielectric flags
 need gradient              =  F 
 need factor depend. sqrt   =  T 
 total dielectric charge    =      0.0000000

%%%% DENSITY %%%%%%%%%%%%%%%%%%%%%%%%%%%%%%%%%%%%%%%%%%%%%%%%%%%%%%%%%%%%%%%%%%%
 density label              = dvtot                                                                           
 integral of density        =      0.000000000    

%%%% DENSITY %%%%%%%%%%%%%%%%%%%%%%%%%%%%%%%%%%%%%%%%%%%%%%%%%%%%%%%%%%%%%%%%%%%
 density label              = vreference                                                                      
 integral of density        =      0.000000000    

%%%% DENSITY %%%%%%%%%%%%%%%%%%%%%%%%%%%%%%%%%%%%%%%%%%%%%%%%%%%%%%%%%%%%%%%%%%%
 density label              = velectrostatic                                                                  
 integral of density        =      0.000000000    

%%%% CHARGES %%%%%%%%%%%%%%%%%%%%%%%%%%%%%%%%%%%%%%%%%%%%%%%%%%%%%%%%%%%%%%%%%%%
 total number of charges    =         11
 total charge               =     -0.0000000

%%%% DENSITY %%%%%%%%%%%%%%%%%%%%%%%%%%%%%%%%%%%%%%%%%%%%%%%%%%%%%%%%%%%%%%%%%%%
 density label              = vsoftcavity                                                                     
 integral of density        =      0.000000000    

%%%% ELECTRONS %%%%%%%%%%%%%%%%%%%%%%%%%%%%%%%%%%%%%%%%%%%%%%%%%%%%%%%%%%%%%%%%%
 number of electrons        =          8
 total electronic charge    =      8.0000000

%%%% ELECTRONS %%%%%%%%%%%%%%%%%%%%%%%%%%%%%%%%%%%%%%%%%%%%%%%%%%%%%%%%%%%%%%%%%
 number of electrons        =          8
 total electronic charge    =      8.0000000

%%%% BOUNDARY %%%%%%%%%%%%%%%%%%%%%%%%%%%%%%%%%%%%%%%%%%%%%%%%%%%%%%%%%%%%%%%%%%
 boundary label             = solvent              
 boundary mode              = electronic           
 boundary is built as a function of a smooth density
 function type              =  1 
 using the optimal SCCS function with parameters 
 rhomax                     =      0.0050000 
 rhomin                     =      0.0001000 
 volume of the QM region    =    345.1756690 
 surface of the QM region   =    230.1361651 

%%%% DIELECTRIC %%%%%%%%%%%%%%%%%%%%%%%%%%%%%%%%%%%%%%%%%%%%%%%%%%%%%%%%%%%%%%%%%
 dielectric build in the presence of dielectric regions
 environment bulk permitt.  =      1.0000000 
 number of dielec. regions  =    1 

%%%% FUNCTIONS %%%%%%%%%%%%%%%%%%%%%%%%%%%%%%%%%%%%%%%%%%%%%%%%%%%%%%%%%%%%%%%%%
 number of functions        =          1
 Scaled ERFC function, type = 4 
 number                     =   1 
 dimensionality             = 0 
 axis                       = 3 
 width                      =     6.000000 
 spread                     =     0.500000 
 max value                  =   100.000000 
 dielectric flags
 need gradient              =  F 
 need factor depend. sqrt   =  T 
 total dielectric charge    =      0.0000000

%%%% DENSITY %%%%%%%%%%%%%%%%%%%%%%%%%%%%%%%%%%%%%%%%%%%%%%%%%%%%%%%%%%%%%%%%%%%
 density label              = vreference                                                                      
 integral of density        =    -0.3457256504E-12

%%%% COMPUTE ELECTROSTATIC POTENTIAL %%%%%%%%%%%%%%%%%%%%%%%%%%%%%%%%%%%%%%%%%%%
 Iteration #          1
  pAp =    29.383877742760063       rzold =    28.641099385777974       alpha =   0.97472156794672538     
 delta_qm =   0.702008E-02 delta_en =   0.851585E+02 tol =   0.100000E-12
 Iteration #          2
  pAp =    30.099263645205163       rzold =    4.0880032194859686       alpha =   0.13581738303213245     
 delta_qm =   0.198707E-02 delta_en =   0.682290E+01 tol =   0.100000E-12
 Iteration #          3
  pAp =   0.80935942567478947       rzold =   0.17981555159013538       alpha =   0.22217020755669492     
 delta_qm =   0.512238E-03 delta_en =   0.453407E+00 tol =   0.100000E-12
 Iteration #          4
  pAp =    4.2765250813998533E-002  rzold =    7.4650680489952740E-003  alpha =   0.17455920184973406     
 delta_qm =   0.279502E-03 delta_en =   0.134994E+00 tol =   0.100000E-12
 Iteration #          5
  pAp =    4.8689024717748783E-003  rzold =    1.4099833891302916E-003  alpha =   0.28958957327734386     
 delta_qm =   0.200855E-03 delta_en =   0.697123E-01 tol =   0.100000E-12
 Iteration #          6
  pAp =    1.0209520104577396E-003  rzold =    4.0806441596625713E-004  alpha =   0.39969010471246652     
 delta_qm =   0.887283E-04 delta_en =   0.136040E-01 tol =   0.100000E-12
 Iteration #          7
  pAp =    2.1442820783505514E-004  rzold =    7.3766750864996615E-005  alpha =   0.34401607703469822     
 delta_qm =   0.863551E-04 delta_en =   0.128860E-01 tol =   0.100000E-12
 Iteration #          8
  pAp =    7.3015120469767738E-005  rzold =    2.6098914205692736E-005  alpha =   0.35744533512752497     
 delta_qm =   0.753834E-04 delta_en =   0.981963E-02 tol =   0.100000E-12
 Iteration #          9
  pAp =    1.1843242928725426E-005  rzold =    2.0421252601796051E-005  alpha =    1.7242956785311667     
 delta_qm =   0.588107E-04 delta_en =   0.597663E-02 tol =   0.100000E-12
 Iteration #         10
  pAp =    1.9357670115880180E-004  rzold =    4.5295707887643237E-005  alpha =   0.23399359332239386     
 delta_qm =   0.519243E-04 delta_en =   0.465892E-02 tol =   0.100000E-12
 Iteration #         11
  pAp =    5.9309190623791875E-005  rzold =    2.1456302786689641E-005  alpha =   0.36177028485838836     
 delta_qm =   0.411482E-04 delta_en =   0.292580E-02 tol =   0.100000E-12
 Iteration #         12
  pAp =    2.4477285104894804E-005  rzold =    8.2981153128222122E-006  alpha =   0.33901289613049490     
 delta_qm =   0.301888E-04 delta_en =   0.157484E-02 tol =   0.100000E-12
 Iteration #         13
  pAp =    4.9081955446240683E-006  rzold =    2.8885647224632791E-006  alpha =   0.58851867171981675     
 delta_qm =   0.194484E-04 delta_en =   0.653602E-03 tol =   0.100000E-12
 Iteration #         14
  pAp =    5.5774843440727190E-006  rzold =    2.5185399480431370E-006  alpha =   0.45155482161409011     
 delta_qm =   0.138540E-04 delta_en =   0.331660E-03 tol =   0.100000E-12
 Iteration #         15
  pAp =    1.4081149984262548E-006  rzold =    9.2600333145242456E-007  alpha =   0.65761910958078673     
 delta_qm =   0.900081E-05 delta_en =   0.139993E-03 tol =   0.100000E-12
 Iteration #         16
  pAp =    2.6802517040646368E-006  rzold =    8.4296944192499568E-007  alpha =   0.31451129781826886     
 delta_qm =   0.419277E-05 delta_en =   0.303771E-04 tol =   0.100000E-12
 Iteration #         17
  pAp =    7.2546554704517189E-007  rzold =    2.4530265924113653E-007  alpha =   0.33813136990482401     
 delta_qm =   0.273677E-05 delta_en =   0.129425E-04 tol =   0.100000E-12
 Iteration #         18
  pAp =    8.7070809166357477E-008  rzold =    3.8993266492941216E-008  alpha =   0.44783397405255171     
 delta_qm =   0.211907E-05 delta_en =   0.775951E-05 tol =   0.100000E-12
 Iteration #         19
  pAp =    3.3387620568659883E-008  rzold =    1.2052544461176439E-008  alpha =   0.36098842193294417     
 delta_qm =   0.170495E-05 delta_en =   0.502306E-05 tol =   0.100000E-12
 Iteration #         20
  pAp =    3.3230534101591979E-008  rzold =    1.6210672337486169E-008  alpha =   0.48782460997849453     
 delta_qm =   0.870234E-06 delta_en =   0.130863E-05 tol =   0.100000E-12
 Iteration #         21
  pAp =    1.1507111517642023E-008  rzold =    5.6488401416786658E-009  alpha =   0.49089992158485629     
 delta_qm =   0.533646E-06 delta_en =   0.492096E-06 tol =   0.100000E-12
 Iteration #         22
  pAp =    4.9743218300904827E-009  rzold =    2.0100781238768988E-009  alpha =   0.40409088766987472     
 delta_qm =   0.339721E-06 delta_en =   0.199429E-06 tol =   0.100000E-12
 Iteration #         23
  pAp =    6.0592715271353107E-010  rzold =    3.5240596118668687E-010  alpha =   0.58159790266619160     
 delta_qm =   0.200655E-06 delta_en =   0.695737E-07 tol =   0.100000E-12
 Iteration #         24
  pAp =    1.6299864467728856E-010  rzold =    1.2651888739159661E-010  alpha =   0.77619594716314311     
 delta_qm =   0.138313E-06 delta_en =   0.330573E-07 tol =   0.100000E-12
 Iteration #         25
  pAp =    7.7388833085722273E-011  rzold =    5.2897990387459835E-011  alpha =   0.68353518561089610     
 delta_qm =   0.805165E-07 delta_en =   0.112025E-07 tol =   0.100000E-12
 Iteration #         26
  pAp =    6.2179317866779453E-011  rzold =    3.2310192686547879E-011  alpha =   0.51962925607793209     
 delta_qm =   0.325197E-07 delta_en =   0.182742E-08 tol =   0.100000E-12
 Iteration #         27
  pAp =    7.2820299522060812E-012  rzold =    3.3328347557474770E-012  alpha =   0.45767935282081601     
 delta_qm =   0.202819E-07 delta_en =   0.710825E-09 tol =   0.100000E-12
 Iteration #         28
  pAp =    2.7888220221718095E-012  rzold =    1.3546600119662530E-012  alpha =   0.48574631195407175     
 delta_qm =   0.108500E-07 delta_en =   0.203423E-09 tol =   0.100000E-12
 Iteration #         29
  pAp =    1.0005756501171950E-012  rzold =    4.4388641716068761E-013  alpha =   0.44363104090000222     
 delta_qm =   0.794218E-08 delta_en =   0.108999E-09 tol =   0.100000E-12
 Iteration #         30
  pAp =    5.3549503743168536E-013  rzold =    2.6683205755624275E-013  alpha =   0.49829043950810337     
 delta_qm =   0.568536E-08 delta_en =   0.558547E-10 tol =   0.100000E-12
 Iteration #         31
  pAp =    2.9189162243403774E-013  rzold =    1.3788112985349147E-013  alpha =   0.47237097352682716     
 delta_qm =   0.348250E-08 delta_en =   0.209568E-10 tol =   0.100000E-12
 Iteration #         32
  pAp =    8.1788256965255867E-014  rzold =    3.7417483374146319E-014  alpha =   0.45749212371699627     
 delta_qm =   0.197153E-08 delta_en =   0.671664E-11 tol =   0.100000E-12
 Iteration #         33
  pAp =    1.0635906707538824E-013  rzold =    2.1420776400658561E-014  alpha =   0.20140056686916336     
 delta_qm =   0.147807E-08 delta_en =   0.377512E-11 tol =   0.100000E-12
 Iteration #         34
  pAp =    1.4619241208994257E-014  rzold =    6.1910936138202005E-015  alpha =   0.42348939492230470     
 delta_qm =   0.801424E-09 delta_en =   0.110986E-11 tol =   0.100000E-12
 Iteration #         35
  pAp =    4.2958814150254073E-015  rzold =    1.8828744176274588E-015  alpha =   0.43829757754528770     
 delta_qm =   0.529139E-09 delta_en =   0.483820E-12 tol =   0.100000E-12
 Iteration #         36
  pAp =    6.9540362235993944E-015  rzold =    1.6109034299977509E-015  alpha =   0.23165013500087159     
 delta_qm =   0.368501E-09 delta_en =   0.234650E-12 tol =   0.100000E-12
 Iteration #         37
  pAp =    6.3691246050401426E-016  rzold =    4.1658449201271681E-016  alpha =   0.65406867952160475     
 delta_qm =   0.199430E-09 delta_en =   0.687267E-13 tol =   0.100000E-12
 Charges are converged, EXIT

%%%% DENSITY %%%%%%%%%%%%%%%%%%%%%%%%%%%%%%%%%%%%%%%%%%%%%%%%%%%%%%%%%%%%%%%%%%%
 density label              = velectrostatic                                                                  
 integral of density        =    -0.1170389354E-11

%%%% CHARGES %%%%%%%%%%%%%%%%%%%%%%%%%%%%%%%%%%%%%%%%%%%%%%%%%%%%%%%%%%%%%%%%%%%
 total number of charges    =         11
 total charge               =     -0.0000000

%%%% DENSITY %%%%%%%%%%%%%%%%%%%%%%%%%%%%%%%%%%%%%%%%%%%%%%%%%%%%%%%%%%%%%%%%%%%
 density label              = vsoftcavity                                                                     
 integral of density        =      22.97296672    

%%%% DENSITY %%%%%%%%%%%%%%%%%%%%%%%%%%%%%%%%%%%%%%%%%%%%%%%%%%%%%%%%%%%%%%%%%%%
 density label              = dvtot                                                                           
 integral of density        =      22.97296672    

%%%% ELECTRONS %%%%%%%%%%%%%%%%%%%%%%%%%%%%%%%%%%%%%%%%%%%%%%%%%%%%%%%%%%%%%%%%%
 number of electrons        =          8
 total electronic charge    =      8.0000000

%%%% ELECTRONS %%%%%%%%%%%%%%%%%%%%%%%%%%%%%%%%%%%%%%%%%%%%%%%%%%%%%%%%%%%%%%%%%
 number of electrons        =          8
 total electronic charge    =      8.0000000

%%%% BOUNDARY %%%%%%%%%%%%%%%%%%%%%%%%%%%%%%%%%%%%%%%%%%%%%%%%%%%%%%%%%%%%%%%%%%
 boundary label             = solvent              
 boundary mode              = electronic           
 boundary is built as a function of a smooth density
 function type              =  1 
 using the optimal SCCS function with parameters 
 rhomax                     =      0.0050000 
 rhomin                     =      0.0001000 
 volume of the QM region    =    246.5676294 
 surface of the QM region   =    188.3821484 

%%%% DIELECTRIC %%%%%%%%%%%%%%%%%%%%%%%%%%%%%%%%%%%%%%%%%%%%%%%%%%%%%%%%%%%%%%%%%
 dielectric build in the presence of dielectric regions
 environment bulk permitt.  =      1.0000000 
 number of dielec. regions  =    1 

%%%% FUNCTIONS %%%%%%%%%%%%%%%%%%%%%%%%%%%%%%%%%%%%%%%%%%%%%%%%%%%%%%%%%%%%%%%%%
 number of functions        =          1
 Scaled ERFC function, type = 4 
 number                     =   1 
 dimensionality             = 0 
 axis                       = 3 
 width                      =     6.000000 
 spread                     =     0.500000 
 max value                  =   100.000000 
 dielectric flags
 need gradient              =  F 
 need factor depend. sqrt   =  T 
 total dielectric charge    =      0.0338597

%%%% DENSITY %%%%%%%%%%%%%%%%%%%%%%%%%%%%%%%%%%%%%%%%%%%%%%%%%%%%%%%%%%%%%%%%%%%
 density label              = vreference                                                                      
 integral of density        =     0.2773689642E-11

%%%% COMPUTE ELECTROSTATIC POTENTIAL %%%%%%%%%%%%%%%%%%%%%%%%%%%%%%%%%%%%%%%%%%%
 Warning: bad guess with residual norm =   0.142249E+03, reset to no guess
 Iteration #          1
  pAp =    28.391767586249550       rzold =    27.811130842062152       alpha =   0.97954911604487049     
 delta_qm =   0.892508E-02 delta_en =   0.137648E+03 tol =   0.100000E-12
 Iteration #          2
  pAp =    31.222196746131992       rzold =    3.7072567004383363       alpha =   0.11873785597413530     
 delta_qm =   0.238029E-02 delta_en =   0.979045E+01 tol =   0.100000E-12
 Iteration #          3
  pAp =    1.0026466489133570       rzold =   0.19092333340446016       alpha =   0.19041936021167380     
 delta_qm =   0.603085E-03 delta_en =   0.628494E+00 tol =   0.100000E-12
 Iteration #          4
  pAp =    7.1898560469438710E-002  rzold =    1.0845615521551265E-002  alpha =   0.15084607328350219     
 delta_qm =   0.441980E-03 delta_en =   0.337558E+00 tol =   0.100000E-12
 Iteration #          5
  pAp =    5.3967602343127988E-003  rzold =    1.6367233136903008E-003  alpha =   0.30327886410145743     
 delta_qm =   0.255583E-03 delta_en =   0.112877E+00 tol =   0.100000E-12
 Iteration #          6
  pAp =    1.3138952817364341E-003  rzold =    4.9329008206021590E-004  alpha =   0.37544094184453380     
 delta_qm =   0.182308E-03 delta_en =   0.574324E-01 tol =   0.100000E-12
 Iteration #          7
  pAp =    7.7332333467687413E-004  rzold =    2.3324668465054356E-004  alpha =   0.30161599190331362     
 delta_qm =   0.186117E-03 delta_en =   0.598570E-01 tol =   0.100000E-12
 Iteration #          8
  pAp =    3.6867297173402508E-005  rzold =    6.2513017611569784E-005  alpha =    1.6956224731513296     
 delta_qm =   0.163577E-03 delta_en =   0.462366E-01 tol =   0.100000E-12
 Iteration #          9
  pAp =    2.5135340291180153E-004  rzold =    1.9269254496062787E-004  alpha =   0.76661999689832161     
 delta_qm =   0.133777E-03 delta_en =   0.309250E-01 tol =   0.100000E-12
 Iteration #         10
  pAp =    5.0978516667673850E-004  rzold =    1.4648539478461515E-004  alpha =   0.28734730698334238     
 delta_qm =   0.108047E-03 delta_en =   0.201728E-01 tol =   0.100000E-12
 Iteration #         11
  pAp =    7.8433629930496965E-005  rzold =    3.0251979568711064E-005  alpha =   0.38570163838545402     
 delta_qm =   0.825955E-04 delta_en =   0.117885E-01 tol =   0.100000E-12
 Iteration #         12
  pAp =    9.4974845996441875E-005  rzold =    2.8173824226600335E-005  alpha =   0.29664511619903899     
 delta_qm =   0.648383E-04 delta_en =   0.726453E-02 tol =   0.100000E-12
 Iteration #         13
  pAp =    3.6560593488137760E-005  rzold =    1.6892124778516533E-005  alpha =   0.46203092365000187     
 delta_qm =   0.600287E-04 delta_en =   0.622676E-02 tol =   0.100000E-12
 Iteration #         14
  pAp =    1.5681327261661876E-005  rzold =    1.4362267660023071E-005  alpha =   0.91588342111425247     
 delta_qm =   0.602008E-04 delta_en =   0.626251E-02 tol =   0.100000E-12
 Iteration #         15
  pAp =    4.0651966894988351E-005  rzold =    1.7479253879905593E-005  alpha =   0.42997314066150311     
 delta_qm =   0.520481E-04 delta_en =   0.468117E-02 tol =   0.100000E-12
 Iteration #         16
  pAp =    2.9738093543673366E-005  rzold =    1.7214875222316982E-005  alpha =   0.57888294678457497     
 delta_qm =   0.396299E-04 delta_en =   0.271387E-02 tol =   0.100000E-12
 Iteration #         17
  pAp =    8.9575646535544491E-006  rzold =    4.1996010189851752E-006  alpha =   0.46883290061643401     
 delta_qm =   0.371485E-04 delta_en =   0.238466E-02 tol =   0.100000E-12
 Iteration #         18
  pAp =    5.6126280447762658E-006  rzold =    4.5470534047810948E-006  alpha =   0.81014693446737251     
 delta_qm =   0.382416E-04 delta_en =   0.252707E-02 tol =   0.100000E-12
 Iteration #         19
  pAp =    3.4837798015779195E-005  rzold =    1.3763197340309407E-005  alpha =   0.39506507656068268     
 delta_qm =   0.417014E-04 delta_en =   0.300500E-02 tol =   0.100000E-12
 Iteration #         20
  pAp =    2.2026569569884616E-005  rzold =    1.1182790140631867E-005  alpha =   0.50769549498626021     
 delta_qm =   0.340753E-04 delta_en =   0.200642E-02 tol =   0.100000E-12
 Iteration #         21
  pAp =    8.7319903025036765E-006  rzold =    4.1077077185308998E-006  alpha =   0.47042055433262664     
 delta_qm =   0.235709E-04 delta_en =   0.960056E-03 tol =   0.100000E-12
 Iteration #         22
  pAp =    1.3475242263491512E-006  rzold =    9.3067212047620120E-007  alpha =   0.69065334951169832     
 delta_qm =   0.144654E-04 delta_en =   0.361580E-03 tol =   0.100000E-12
 Iteration #         23
  pAp =    1.2817293768851653E-006  rzold =    6.0983499937286505E-007  alpha =   0.47579076392465514     
 delta_qm =   0.106154E-04 delta_en =   0.194721E-03 tol =   0.100000E-12
 Iteration #         24
  pAp =    4.1876784216272026E-007  rzold =    2.9030474733533533E-007  alpha =   0.69323553078015920     
 delta_qm =   0.761636E-05 delta_en =   0.100239E-03 tol =   0.100000E-12
 Iteration #         25
  pAp =    1.8957156796717691E-007  rzold =    1.1700751722444349E-007  alpha =   0.61722081258885075     
 delta_qm =   0.380061E-05 delta_en =   0.249604E-04 tol =   0.100000E-12
 Iteration #         26
  pAp =    1.2079179780380943E-007  rzold =    4.2454829685245161E-008  alpha =   0.35147113013584319     
 delta_qm =   0.215648E-05 delta_en =   0.803589E-05 tol =   0.100000E-12
 Iteration #         27
  pAp =    2.0512566847080911E-008  rzold =    8.4051273124036187E-009  alpha =   0.40975502359421828     
 delta_qm =   0.127169E-05 delta_en =   0.279451E-05 tol =   0.100000E-12
 Iteration #         28
  pAp =    3.6050769865507807E-008  rzold =    6.3511149608876014E-009  alpha =   0.17617141005812859     
 delta_qm =   0.851481E-06 delta_en =   0.125283E-05 tol =   0.100000E-12
 Iteration #         29
  pAp =    3.9617923727834055E-009  rzold =    1.7994777810628873E-009  alpha =   0.45420799772973519     
 delta_qm =   0.394396E-06 delta_en =   0.268787E-06 tol =   0.100000E-12
 Iteration #         30
  pAp =    6.9820726213226824E-010  rzold =    3.5146814366333593E-010  alpha =   0.50338654827218610     
 delta_qm =   0.227990E-06 delta_en =   0.898205E-07 tol =   0.100000E-12
 Iteration #         31
  pAp =    2.5383316535228545E-010  rzold =    1.4675007339747778E-010  alpha =   0.57813593110974648     
 delta_qm =   0.176767E-06 delta_en =   0.539940E-07 tol =   0.100000E-12
 Iteration #         32
  pAp =    3.1867761955406065E-010  rzold =    1.1792393258552095E-010  alpha =   0.37004146306394842     
 delta_qm =   0.169097E-06 delta_en =   0.494103E-07 tol =   0.100000E-12
 Iteration #         33
  pAp =    4.1372084122945137E-011  rzold =    4.3166214271759472E-011  alpha =    1.0433657183786713     
 delta_qm =   0.951140E-07 delta_en =   0.156326E-07 tol =   0.100000E-12
 Iteration #         34
  pAp =    4.7849932199475801E-011  rzold =    2.2670328569081734E-011  alpha =   0.47377974277108981     
 delta_qm =   0.607016E-07 delta_en =   0.636713E-08 tol =   0.100000E-12
 Iteration #         35
  pAp =    1.9825164366296162E-011  rzold =    9.2080888763889129E-012  alpha =   0.46446469276406888     
 delta_qm =   0.382243E-07 delta_en =   0.252478E-08 tol =   0.100000E-12
 Iteration #         36
  pAp =    2.2987576134783209E-011  rzold =    5.1433624161567690E-012  alpha =   0.22374531294642191     
 delta_qm =   0.299388E-07 delta_en =   0.154886E-08 tol =   0.100000E-12
 Iteration #         37
  pAp =    6.3280672755774421E-012  rzold =    2.4173441961452013E-012  alpha =   0.38200355509409722     
 delta_qm =   0.200467E-07 delta_en =   0.694434E-09 tol =   0.100000E-12
 Iteration #         38
  pAp =    1.0067733228720896E-012  rzold =    6.7952198856242702E-013  alpha =   0.67495033204088994     
 delta_qm =   0.651498E-08 delta_en =   0.733449E-10 tol =   0.100000E-12
 Iteration #         39
  pAp =    5.3526314995064218E-013  rzold =    1.9447701219035370E-013  alpha =   0.36332972334876196     
 delta_qm =   0.379613E-08 delta_en =   0.249015E-10 tol =   0.100000E-12
 Iteration #         40
  pAp =    2.3365987705314979E-013  rzold =    7.1586775005553033E-014  alpha =   0.30637170535388686     
 delta_qm =   0.244677E-08 delta_en =   0.103450E-10 tol =   0.100000E-12
 Iteration #         41
  pAp =    1.9604512820778970E-014  rzold =    9.4838037147779121E-015  alpha =   0.48375615356919033     
 delta_qm =   0.148854E-08 delta_en =   0.382882E-11 tol =   0.100000E-12
 Iteration #         42
  pAp =    5.2133219894889871E-014  rzold =    1.1737464150359596E-014  alpha =   0.22514366413631223     
 delta_qm =   0.104726E-08 delta_en =   0.189518E-11 tol =   0.100000E-12
 Iteration #         43
  pAp =    5.2274843103005319E-015  rzold =    3.1539106638782637E-015  alpha =   0.60333240171828328     
 delta_qm =   0.755509E-09 delta_en =   0.986332E-12 tol =   0.100000E-12
 Iteration #         44
  pAp =    2.5323224672586733E-015  rzold =    1.5963703641567951E-015  alpha =   0.63039774151864680     
 delta_qm =   0.579383E-09 delta_en =   0.580063E-12 tol =   0.100000E-12
 Iteration #         45
  pAp =    7.5259738239550317E-016  rzold =    5.6535222259319159E-016  alpha =   0.75120142033139448     
 delta_qm =   0.396235E-09 delta_en =   0.271300E-12 tol =   0.100000E-12
 Iteration #         46
  pAp =    9.1921902126551014E-016  rzold =    4.8743133603038169E-016  alpha =   0.53026680775091406     
 delta_qm =   0.359826E-09 delta_en =   0.223732E-12 tol =   0.100000E-12
 Iteration #         47
  pAp =    4.2599514300768337E-016  rzold =    3.5275670413201219E-016  alpha =   0.82807682181871678     
 delta_qm =   0.405633E-09 delta_en =   0.284322E-12 tol =   0.100000E-12
 Iteration #         48
  pAp =    2.1672259992033379E-015  rzold =    5.4505637657744747E-016  alpha =   0.25149955601206686     
 delta_qm =   0.369064E-09 delta_en =   0.235368E-12 tol =   0.100000E-12
 Iteration #         49
  pAp =    5.7282002154394802E-016  rzold =    3.4247107353273536E-016  alpha =   0.59786854623142782     
 delta_qm =   0.274715E-09 delta_en =   0.130409E-12 tol =   0.100000E-12
 Iteration #         50
  pAp =    1.4462388780653146E-016  rzold =    1.1576380224107597E-016  alpha =   0.80044731196783581     
 delta_qm =   0.134634E-09 delta_en =   0.313223E-13 tol =   0.100000E-12
 Charges are converged, EXIT

%%%% DENSITY %%%%%%%%%%%%%%%%%%%%%%%%%%%%%%%%%%%%%%%%%%%%%%%%%%%%%%%%%%%%%%%%%%%
 density label              = velectrostatic                                                                  
 integral of density        =    -0.9408205712E-12

%%%% CHARGES %%%%%%%%%%%%%%%%%%%%%%%%%%%%%%%%%%%%%%%%%%%%%%%%%%%%%%%%%%%%%%%%%%%
 total number of charges    =         11
 total charge               =      0.0000000

%%%% DENSITY %%%%%%%%%%%%%%%%%%%%%%%%%%%%%%%%%%%%%%%%%%%%%%%%%%%%%%%%%%%%%%%%%%%
 density label              = vsoftcavity                                                                     
 integral of density        =      16.17366425    

%%%% DENSITY %%%%%%%%%%%%%%%%%%%%%%%%%%%%%%%%%%%%%%%%%%%%%%%%%%%%%%%%%%%%%%%%%%%
 density label              = dvtot                                                                           
 integral of density        =      16.17366425    

%%%% ELECTRONS %%%%%%%%%%%%%%%%%%%%%%%%%%%%%%%%%%%%%%%%%%%%%%%%%%%%%%%%%%%%%%%%%
 number of electrons        =          8
 total electronic charge    =      8.0000000

%%%% ELECTRONS %%%%%%%%%%%%%%%%%%%%%%%%%%%%%%%%%%%%%%%%%%%%%%%%%%%%%%%%%%%%%%%%%
 number of electrons        =          8
 total electronic charge    =      8.0000000

%%%% BOUNDARY %%%%%%%%%%%%%%%%%%%%%%%%%%%%%%%%%%%%%%%%%%%%%%%%%%%%%%%%%%%%%%%%%%
 boundary label             = solvent              
 boundary mode              = electronic           
 boundary is built as a function of a smooth density
 function type              =  1 
 using the optimal SCCS function with parameters 
 rhomax                     =      0.0050000 
 rhomin                     =      0.0001000 
 volume of the QM region    =    237.5987509 
 surface of the QM region   =    184.5358429 

%%%% DIELECTRIC %%%%%%%%%%%%%%%%%%%%%%%%%%%%%%%%%%%%%%%%%%%%%%%%%%%%%%%%%%%%%%%%%
 dielectric build in the presence of dielectric regions
 environment bulk permitt.  =      1.0000000 
 number of dielec. regions  =    1 

%%%% FUNCTIONS %%%%%%%%%%%%%%%%%%%%%%%%%%%%%%%%%%%%%%%%%%%%%%%%%%%%%%%%%%%%%%%%%
 number of functions        =          1
 Scaled ERFC function, type = 4 
 number                     =   1 
 dimensionality             = 0 
 axis                       = 3 
 width                      =     6.000000 
 spread                     =     0.500000 
 max value                  =   100.000000 
 dielectric flags
 need gradient              =  F 
 need factor depend. sqrt   =  T 
 total dielectric charge    =      0.0134989

%%%% DENSITY %%%%%%%%%%%%%%%%%%%%%%%%%%%%%%%%%%%%%%%%%%%%%%%%%%%%%%%%%%%%%%%%%%%
 density label              = vreference                                                                      
 integral of density        =     0.1891617168E-13

%%%% COMPUTE ELECTROSTATIC POTENTIAL %%%%%%%%%%%%%%%%%%%%%%%%%%%%%%%%%%%%%%%%%%%
 Warning: bad guess with residual norm =   0.210898E+03, reset to no guess
 Iteration #          1
  pAp =    29.252200937848674       rzold =    28.807704431593638       alpha =   0.98480468163064228     
 delta_qm =   0.108969E-01 delta_en =   0.205187E+03 tol =   0.100000E-12
 Iteration #          2
  pAp =    25.994765062877331       rzold =    2.9657480342733251       alpha =   0.11409020343517773     
 delta_qm =   0.261211E-02 delta_en =   0.117904E+02 tol =   0.100000E-12
 Iteration #          3
  pAp =    1.1191500029518102       rzold =   0.18201361952037542       alpha =   0.16263558865237548     
 delta_qm =   0.761125E-03 delta_en =   0.100105E+01 tol =   0.100000E-12
 Iteration #          4
  pAp =   0.12159987867487849       rzold =    1.6407406637726607E-002  alpha =   0.13492946552681256     
 delta_qm =   0.523654E-03 delta_en =   0.473841E+00 tol =   0.100000E-12
 Iteration #          5
  pAp =    5.1553824284425011E-003  rzold =    1.5009487976179951E-003  alpha =   0.29114208663496738     
 delta_qm =   0.322079E-03 delta_en =   0.179254E+00 tol =   0.100000E-12
 Iteration #          6
  pAp =    1.3382080847168772E-003  rzold =    5.3649165915992277E-004  alpha =   0.40090301746564888     
 delta_qm =   0.250348E-03 delta_en =   0.108301E+00 tol =   0.100000E-12
 Iteration #          7
  pAp =    7.9150812583175833E-004  rzold =    2.5241161115457049E-004  alpha =   0.31889958285560632     
 delta_qm =   0.273537E-03 delta_en =   0.129294E+00 tol =   0.100000E-12
 Iteration #          8
  pAp =    4.9283484758655664E-005  rzold =    9.1002460739518647E-005  alpha =    1.8465102698229121     
 delta_qm =   0.243103E-03 delta_en =   0.102124E+00 tol =   0.100000E-12
 Iteration #          9
  pAp =    4.7883524622475970E-004  rzold =    3.3430457693340931E-004  alpha =   0.69816200784954463     
 delta_qm =   0.221060E-03 delta_en =   0.844430E-01 tol =   0.100000E-12
 Iteration #         10
  pAp =    7.4235312380324127E-004  rzold =    2.0408296170669788E-004  alpha =   0.27491358918399261     
 delta_qm =   0.190701E-03 delta_en =   0.628417E-01 tol =   0.100000E-12
 Iteration #         11
  pAp =    2.5586630481023472E-004  rzold =    7.0175472115862231E-005  alpha =   0.27426617259317687     
 delta_qm =   0.155832E-03 delta_en =   0.419619E-01 tol =   0.100000E-12
 Iteration #         12
  pAp =    1.4399265670051283E-004  rzold =    5.1686741496726771E-005  alpha =   0.35895400974668379     
 delta_qm =   0.117078E-03 delta_en =   0.236860E-01 tol =   0.100000E-12
 Iteration #         13
  pAp =    4.9033665427684948E-005  rzold =    3.0278205359324486E-005  alpha =   0.61749830642334724     
 delta_qm =   0.100739E-03 delta_en =   0.175363E-01 tol =   0.100000E-12
 Iteration #         14
  pAp =    6.1168323543300869E-005  rzold =    3.6189715115152263E-005  alpha =   0.59164144149763520     
 delta_qm =   0.112698E-03 delta_en =   0.219469E-01 tol =   0.100000E-12
 Iteration #         15
  pAp =    5.5112990784958244E-005  rzold =    3.1587011847718052E-005  alpha =   0.57313187685577316     
 delta_qm =   0.822440E-04 delta_en =   0.116883E-01 tol =   0.100000E-12
 Iteration #         16
  pAp =    8.4358177612938742E-005  rzold =    3.5725077391217534E-005  alpha =   0.42349275911501044     
 delta_qm =   0.665399E-04 delta_en =   0.765082E-02 tol =   0.100000E-12
 Iteration #         17
  pAp =    3.9819863681557933E-005  rzold =    1.2398688552688145E-005  alpha =   0.31136943742051132     
 delta_qm =   0.661495E-04 delta_en =   0.756131E-02 tol =   0.100000E-12
 Iteration #         18
  pAp =    1.7460563573965614E-005  rzold =    7.9300343634149527E-006  alpha =   0.45416829358468963     
 delta_qm =   0.618423E-04 delta_en =   0.660868E-02 tol =   0.100000E-12
 Iteration #         19
  pAp =    1.7607239304769661E-005  rzold =    1.5938745242271515E-005  alpha =   0.90523817881851787     
 delta_qm =   0.824934E-04 delta_en =   0.117593E-01 tol =   0.100000E-12
 Iteration #         20
  pAp =    3.1443234311421960E-005  rzold =    2.3905881482259475E-005  alpha =   0.76028697447245452     
 delta_qm =   0.821557E-04 delta_en =   0.116632E-01 tol =   0.100000E-12
 Iteration #         21
  pAp =    3.4983441779805812E-005  rzold =    1.7800015872235765E-005  alpha =   0.50881259723595362     
 delta_qm =   0.694898E-04 delta_en =   0.834423E-02 tol =   0.100000E-12
 Iteration #         22
  pAp =    8.3137899392827294E-006  rzold =    6.1233829127930807E-006  alpha =   0.73653327273281755     
 delta_qm =   0.418919E-04 delta_en =   0.303252E-02 tol =   0.100000E-12
 Iteration #         23
  pAp =    4.6922792305570489E-006  rzold =    3.4560444274975573E-006  alpha =   0.73653852588122071     
 delta_qm =   0.337450E-04 delta_en =   0.196772E-02 tol =   0.100000E-12
 Iteration #         24
  pAp =    4.2924277749315126E-006  rzold =    2.2600506381479322E-006  alpha =   0.52652036484970144     
 delta_qm =   0.249577E-04 delta_en =   0.107635E-02 tol =   0.100000E-12
 Iteration #         25
  pAp =    3.4310710932965082E-006  rzold =    1.4424795670355405E-006  alpha =   0.42041669432434681     
 delta_qm =   0.143927E-04 delta_en =   0.357954E-03 tol =   0.100000E-12
 Iteration #         26
  pAp =    3.7663499625940797E-006  rzold =    6.0735213418541563E-007  alpha =   0.16125748807662602     
 delta_qm =   0.130087E-04 delta_en =   0.292422E-03 tol =   0.100000E-12
 Iteration #         27
  pAp =    7.6731769707381117E-007  rzold =    2.4965270161454270E-007  alpha =   0.32535767461978354     
 delta_qm =   0.738112E-05 delta_en =   0.941430E-04 tol =   0.100000E-12
 Iteration #         28
  pAp =    1.6498176270876930E-007  rzold =    6.8499467135360282E-008  alpha =   0.41519417668168312     
 delta_qm =   0.410155E-05 delta_en =   0.290696E-04 tol =   0.100000E-12
 Iteration #         29
  pAp =    3.8512855532072817E-008  rzold =    1.9758306380787664E-008  alpha =   0.51303145684259377     
 delta_qm =   0.201119E-05 delta_en =   0.698959E-05 tol =   0.100000E-12
 Iteration #         30
  pAp =    1.0224682440125494E-008  rzold =    5.2697626379578325E-009  alpha =   0.51539621585481266     
 delta_qm =   0.935466E-06 delta_en =   0.151217E-05 tol =   0.100000E-12
 Iteration #         31
  pAp =    3.4130005479377290E-009  rzold =    1.7051037761968183E-009  alpha =   0.49959082990101189     
 delta_qm =   0.583859E-06 delta_en =   0.589060E-06 tol =   0.100000E-12
 Iteration #         32
  pAp =    1.6738208329442951E-009  rzold =    6.8106322614734916E-010  alpha =   0.40689135464357973     
 delta_qm =   0.484665E-06 delta_en =   0.405908E-06 tol =   0.100000E-12
 Iteration #         33
  pAp =    8.5827371129721965E-010  rzold =    4.6431088932833121E-010  alpha =   0.54098230345021092     
 delta_qm =   0.368496E-06 delta_en =   0.234643E-06 tol =   0.100000E-12
 Iteration #         34
  pAp =    2.6537194360178111E-010  rzold =    1.5822427306703474E-010  alpha =   0.59623587527574928     
 delta_qm =   0.219613E-06 delta_en =   0.833410E-07 tol =   0.100000E-12
 Iteration #         35
  pAp =    1.0901987983144717E-009  rzold =    2.3063359804470304E-010  alpha =   0.21155187329254052     
 delta_qm =   0.166482E-06 delta_en =   0.478935E-07 tol =   0.100000E-12
 Iteration #         36
  pAp =    1.4589135409350128E-010  rzold =    6.8262100756797445E-011  alpha =   0.46789682076052630     
 delta_qm =   0.143902E-06 delta_en =   0.357831E-07 tol =   0.100000E-12
 Iteration #         37
  pAp =    4.4208366441769728E-011  rzold =    2.7775436600950410E-011  alpha =   0.62828461751771791     
 delta_qm =   0.107560E-06 delta_en =   0.199914E-07 tol =   0.100000E-12
 Iteration #         38
  pAp =    1.6199615823081794E-011  rzold =    1.3922050608367583E-011  alpha =   0.85940622051857218     
 delta_qm =   0.421968E-07 delta_en =   0.307682E-08 tol =   0.100000E-12
 Iteration #         39
  pAp =    9.5647008769775311E-012  rzold =    4.1486133120545999E-012  alpha =   0.43374208617860843     
 delta_qm =   0.270922E-07 delta_en =   0.126833E-08 tol =   0.100000E-12
 Iteration #         40
  pAp =    4.2296814653628045E-012  rzold =    1.2419757715270397E-012  alpha =   0.29363340518610620     
 delta_qm =   0.189727E-07 delta_en =   0.622020E-09 tol =   0.100000E-12
 Iteration #         41
  pAp =    6.7410365267642488E-013  rzold =    3.2110978555842935E-013  alpha =   0.47635075745920130     
 delta_qm =   0.889941E-08 delta_en =   0.136857E-09 tol =   0.100000E-12
 Iteration #         42
  pAp =    4.7740493453735852E-013  rzold =    1.3666053497108294E-013  alpha =   0.28625706414936269     
 delta_qm =   0.701482E-08 delta_en =   0.850309E-10 tol =   0.100000E-12
 Iteration #         43
  pAp =    3.7460277810133632E-013  rzold =    1.1210481369903687E-013  alpha =   0.29926316688636689     
 delta_qm =   0.460881E-08 delta_en =   0.367047E-10 tol =   0.100000E-12
 Iteration #         44
  pAp =    8.2146498055030377E-014  rzold =    4.8083160137617013E-014  alpha =   0.58533426592824256     
 delta_qm =   0.518811E-08 delta_en =   0.465117E-10 tol =   0.100000E-12
 Iteration #         45
  pAp =    4.2046360535646495E-014  rzold =    3.4339331127040542E-014  alpha =   0.81670162862081708     
 delta_qm =   0.524866E-08 delta_en =   0.476037E-10 tol =   0.100000E-12
 Iteration #         46
  pAp =    4.6961946620209454E-014  rzold =    3.4854032739444554E-014  alpha =   0.74217606483215026     
 delta_qm =   0.451529E-08 delta_en =   0.352302E-10 tol =   0.100000E-12
 Iteration #         47
  pAp =    2.3494676888796142E-013  rzold =    5.7647062641231050E-014  alpha =   0.24536222785307205     
 delta_qm =   0.405411E-08 delta_en =   0.284011E-10 tol =   0.100000E-12
 Iteration #         48
  pAp =    1.2636722621875684E-013  rzold =    4.3676124354935993E-014  alpha =   0.34562857523933760     
 delta_qm =   0.313203E-08 delta_en =   0.169510E-10 tol =   0.100000E-12
 Iteration #         49
  pAp =    1.0120765509129045E-013  rzold =    2.6412376428607365E-014  alpha =   0.26097212117782104     
 delta_qm =   0.237587E-08 delta_en =   0.975415E-11 tol =   0.100000E-12
 Iteration #         50
  pAp =    6.7126222785303545E-014  rzold =    1.6945637659853887E-014  alpha =   0.25244437950952192     
 delta_qm =   0.174256E-08 delta_en =   0.524713E-11 tol =   0.100000E-12
 Iteration #         51
  pAp =    8.4196404422331457E-015  rzold =    3.8479417129347910E-015  alpha =   0.45701971946847164     
 delta_qm =   0.109673E-08 delta_en =   0.207848E-11 tol =   0.100000E-12
 Iteration #         52
  pAp =    2.0821218663854390E-015  rzold =    1.3195623658794555E-015  alpha =   0.63375846879232589     
 delta_qm =   0.577586E-09 delta_en =   0.576471E-12 tol =   0.100000E-12
 Iteration #         53
  pAp =    5.1532866517871237E-016  rzold =    3.7075403196840978E-016  alpha =   0.71945159860229180     
 delta_qm =   0.291231E-09 delta_en =   0.146561E-12 tol =   0.100000E-12
 Iteration #         54
  pAp =    5.7375189498037300E-016  rzold =    1.7210489548639175E-016  alpha =   0.29996396873299935     
 delta_qm =   0.222793E-09 delta_en =   0.857724E-13 tol =   0.100000E-12
 Charges are converged, EXIT

%%%% DENSITY %%%%%%%%%%%%%%%%%%%%%%%%%%%%%%%%%%%%%%%%%%%%%%%%%%%%%%%%%%%%%%%%%%%
 density label              = velectrostatic                                                                  
 integral of density        =    -0.4969099375E-12

%%%% CHARGES %%%%%%%%%%%%%%%%%%%%%%%%%%%%%%%%%%%%%%%%%%%%%%%%%%%%%%%%%%%%%%%%%%%
 total number of charges    =         11
 total charge               =     -0.0000000

%%%% DENSITY %%%%%%%%%%%%%%%%%%%%%%%%%%%%%%%%%%%%%%%%%%%%%%%%%%%%%%%%%%%%%%%%%%%
 density label              = vsoftcavity                                                                     
 integral of density        =      11.70261772    

%%%% DENSITY %%%%%%%%%%%%%%%%%%%%%%%%%%%%%%%%%%%%%%%%%%%%%%%%%%%%%%%%%%%%%%%%%%%
 density label              = dvtot                                                                           
 integral of density        =      11.70261772    

%%%% ELECTRONS %%%%%%%%%%%%%%%%%%%%%%%%%%%%%%%%%%%%%%%%%%%%%%%%%%%%%%%%%%%%%%%%%
 number of electrons        =          8
 total electronic charge    =      8.0000000

%%%% ELECTRONS %%%%%%%%%%%%%%%%%%%%%%%%%%%%%%%%%%%%%%%%%%%%%%%%%%%%%%%%%%%%%%%%%
 number of electrons        =          8
 total electronic charge    =      8.0000000

%%%% BOUNDARY %%%%%%%%%%%%%%%%%%%%%%%%%%%%%%%%%%%%%%%%%%%%%%%%%%%%%%%%%%%%%%%%%%
 boundary label             = solvent              
 boundary mode              = electronic           
 boundary is built as a function of a smooth density
 function type              =  1 
 using the optimal SCCS function with parameters 
 rhomax                     =      0.0050000 
 rhomin                     =      0.0001000 
 volume of the QM region    =    226.9897040 
 surface of the QM region   =    179.2007255 

%%%% DIELECTRIC %%%%%%%%%%%%%%%%%%%%%%%%%%%%%%%%%%%%%%%%%%%%%%%%%%%%%%%%%%%%%%%%%
 dielectric build in the presence of dielectric regions
 environment bulk permitt.  =      1.0000000 
 number of dielec. regions  =    1 

%%%% FUNCTIONS %%%%%%%%%%%%%%%%%%%%%%%%%%%%%%%%%%%%%%%%%%%%%%%%%%%%%%%%%%%%%%%%%
 number of functions        =          1
 Scaled ERFC function, type = 4 
 number                     =   1 
 dimensionality             = 0 
 axis                       = 3 
 width                      =     6.000000 
 spread                     =     0.500000 
 max value                  =   100.000000 
 dielectric flags
 need gradient              =  F 
 need factor depend. sqrt   =  T 
 total dielectric charge    =      0.0002336

%%%% DENSITY %%%%%%%%%%%%%%%%%%%%%%%%%%%%%%%%%%%%%%%%%%%%%%%%%%%%%%%%%%%%%%%%%%%
 density label              = vreference                                                                      
 integral of density        =    -0.8759329424E-12

%%%% COMPUTE ELECTROSTATIC POTENTIAL %%%%%%%%%%%%%%%%%%%%%%%%%%%%%%%%%%%%%%%%%%%
 Warning: bad guess with residual norm =   0.255428E+03, reset to no guess
 Iteration #          1
  pAp =    28.941378867220852       rzold =    28.489077243169440       alpha =   0.98437180114580891     
 delta_qm =   0.119844E-01 delta_en =   0.248186E+03 tol =   0.100000E-12
 Iteration #          2
  pAp =    26.620477111258577       rzold =    3.0326881522907030       alpha =   0.11392313291815835     
 delta_qm =   0.275921E-02 delta_en =   0.131557E+02 tol =   0.100000E-12
 Iteration #          3
  pAp =    1.3337937415105929       rzold =   0.19724698536999113       alpha =   0.14788417371534399     
 delta_qm =   0.875266E-03 delta_en =   0.132380E+01 tol =   0.100000E-12
 Iteration #          4
  pAp =   0.16643642262847835       rzold =    2.1288921684636208E-002  alpha =   0.12791023351996472     
 delta_qm =   0.559495E-03 delta_en =   0.540924E+00 tol =   0.100000E-12
 Iteration #          5
  pAp =    5.6301837168407365E-003  rzold =    1.6162390090930698E-003  alpha =   0.28706683305176223     
 delta_qm =   0.352817E-03 delta_en =   0.215102E+00 tol =   0.100000E-12
 Iteration #          6
  pAp =    1.4590875301835392E-003  rzold =    6.0704539363170282E-004  alpha =   0.41604453541957304     
 delta_qm =   0.280977E-03 delta_en =   0.136423E+00 tol =   0.100000E-12
 Iteration #          7
  pAp =    8.3942973167913421E-004  rzold =    2.6451033815536122E-004  alpha =   0.31510718309471120     
 delta_qm =   0.304470E-03 delta_en =   0.160189E+00 tol =   0.100000E-12
 Iteration #          8
  pAp =    6.3054818572723368E-005  rzold =    1.0722560899534160E-004  alpha =    1.7005141148994742     
 delta_qm =   0.275503E-03 delta_en =   0.131159E+00 tol =   0.100000E-12
 Iteration #          9
  pAp =    5.4191348724596166E-004  rzold =    3.8537867455753171E-004  alpha =   0.71114427602835706     
 delta_qm =   0.245464E-03 delta_en =   0.104117E+00 tol =   0.100000E-12
 Iteration #         10
  pAp =    1.0610503675884896E-003  rzold =    2.5752081509308506E-004  alpha =   0.24270366700721990     
 delta_qm =   0.219553E-03 delta_en =   0.832959E-01 tol =   0.100000E-12
 Iteration #         11
  pAp =    4.7564343463246087E-004  rzold =    1.1629665402803935E-004  alpha =   0.24450385637700242     
 delta_qm =   0.186265E-03 delta_en =   0.599526E-01 tol =   0.100000E-12
 Iteration #         12
  pAp =    1.2620122296535348E-004  rzold =    5.4053016029228908E-005  alpha =   0.42830817926438236     
 delta_qm =   0.149025E-03 delta_en =   0.383762E-01 tol =   0.100000E-12
 Iteration #         13
  pAp =    6.1639476861865476E-005  rzold =    4.0527790207193503E-005  alpha =   0.65749730968704656     
 delta_qm =   0.123475E-03 delta_en =   0.263454E-01 tol =   0.100000E-12
 Iteration #         14
  pAp =    9.0423567124992663E-005  rzold =    4.8788930033984553E-005  alpha =   0.53955989113483571     
 delta_qm =   0.139913E-03 delta_en =   0.338266E-01 tol =   0.100000E-12
 Iteration #         15
  pAp =    6.3213555886768643E-005  rzold =    4.0860582593578481E-005  alpha =   0.64638956028308303     
 delta_qm =   0.103379E-03 delta_en =   0.184675E-01 tol =   0.100000E-12
 Iteration #         16
  pAp =    1.3499289675919363E-004  rzold =    5.2564254208452621E-005  alpha =   0.38938533412035070     
 delta_qm =   0.874650E-04 delta_en =   0.132194E-01 tol =   0.100000E-12
 Iteration #         17
  pAp =    6.5270189396722701E-005  rzold =    1.8400019345031697E-005  alpha =   0.28190540758497606     
 delta_qm =   0.857242E-04 delta_en =   0.126985E-01 tol =   0.100000E-12
 Iteration #         18
  pAp =    3.0458115403079344E-005  rzold =    1.3959881066472155E-005  alpha =   0.45833042792466400     
 delta_qm =   0.786795E-04 delta_en =   0.106971E-01 tol =   0.100000E-12
 Iteration #         19
  pAp =    2.7187374612128179E-005  rzold =    2.2055306407397828E-005  alpha =   0.81123340234400731     
 delta_qm =   0.101667E-03 delta_en =   0.178610E-01 tol =   0.100000E-12
 Iteration #         20
  pAp =    3.4911832103904713E-005  rzold =    3.1355031698975490E-005  alpha =   0.89812048836785585     
 delta_qm =   0.973323E-04 delta_en =   0.163703E-01 tol =   0.100000E-12
 Iteration #         21
  pAp =    4.3094780224173542E-005  rzold =    2.1901851441549274E-005  alpha =   0.50822515691270820     
 delta_qm =   0.875382E-04 delta_en =   0.132416E-01 tol =   0.100000E-12
 Iteration #         22
  pAp =    1.7496608914377799E-005  rzold =    9.9737625754835681E-006  alpha =   0.57003975023340958     
 delta_qm =   0.580192E-04 delta_en =   0.581685E-02 tol =   0.100000E-12
 Iteration #         23
  pAp =    8.1543492329276449E-006  rzold =    5.3973006906503542E-006  alpha =   0.66189226589116401     
 delta_qm =   0.396964E-04 delta_en =   0.272299E-02 tol =   0.100000E-12
 Iteration #         24
  pAp =    8.7666805504611614E-006  rzold =    4.0265144411715967E-006  alpha =   0.45929749783796858     
 delta_qm =   0.303551E-04 delta_en =   0.159224E-02 tol =   0.100000E-12
 Iteration #         25
  pAp =    6.1066552597829557E-006  rzold =    2.4265896869184601E-006  alpha =   0.39736804906925538     
 delta_qm =   0.197000E-04 delta_en =   0.670622E-03 tol =   0.100000E-12
 Iteration #         26
  pAp =    1.4028518802612060E-005  rzold =    1.9171473147136813E-006  alpha =   0.13666070821081377     
 delta_qm =   0.176145E-04 delta_en =   0.536145E-03 tol =   0.100000E-12
 Iteration #         27
  pAp =    8.5433291594429190E-007  rzold =    4.0931305719267234E-007  alpha =   0.47910252496857120     
 delta_qm =   0.101164E-04 delta_en =   0.176848E-03 tol =   0.100000E-12
 Iteration #         28
  pAp =    1.9904018285360294E-007  rzold =    9.9338516226560738E-008  alpha =   0.49908774601370676     
 delta_qm =   0.588705E-05 delta_en =   0.598880E-04 tol =   0.100000E-12
 Iteration #         29
  pAp =    8.5542410718056912E-008  rzold =    3.9106527582621844E-008  alpha =   0.45715952186003750     
 delta_qm =   0.293261E-05 delta_en =   0.148612E-04 tol =   0.100000E-12
 Iteration #         30
  pAp =    1.7613610420511587E-008  rzold =    9.5317855142931913E-009  alpha =   0.54116023272509395     
 delta_qm =   0.111953E-05 delta_en =   0.216577E-05 tol =   0.100000E-12
 Iteration #         31
  pAp =    3.1961476637559698E-009  rzold =    1.7692018337545403E-009  alpha =   0.55354195734356448     
 delta_qm =   0.639008E-06 delta_en =   0.705596E-06 tol =   0.100000E-12
 Iteration #         32
  pAp =    2.0568643001344512E-009  rzold =    9.1894385867882440E-010  alpha =   0.44676931707101714     
 delta_qm =   0.492507E-06 delta_en =   0.419150E-06 tol =   0.100000E-12
 Iteration #         33
  pAp =    1.3959369409935867E-009  rzold =    5.1348623617798494E-010  alpha =   0.36784343267862846     
 delta_qm =   0.430599E-06 delta_en =   0.320398E-06 tol =   0.100000E-12
 Iteration #         34
  pAp =    6.2930633864999699E-010  rzold =    2.4402427985096743E-010  alpha =   0.38776707759603080     
 delta_qm =   0.295671E-06 delta_en =   0.151064E-06 tol =   0.100000E-12
 Iteration #         35
  pAp =    1.1077995210559792E-009  rzold =    2.9367017760556184E-010  alpha =   0.26509325200432377     
 delta_qm =   0.201345E-06 delta_en =   0.700530E-07 tol =   0.100000E-12
 Iteration #         36
  pAp =    1.4132950768925838E-010  rzold =    8.4743690188543575E-011  alpha =   0.59961781211938969     
 delta_qm =   0.155796E-06 delta_en =   0.419429E-07 tol =   0.100000E-12
 Iteration #         37
  pAp =    4.5009602542686780E-011  rzold =    2.7887146134192965E-011  alpha =   0.61958214600417760     
 delta_qm =   0.127745E-06 delta_en =   0.281990E-07 tol =   0.100000E-12
 Iteration #         38
  pAp =    3.0327019058177905E-011  rzold =    2.2915650592150605E-011  alpha =   0.75561830024211463     
 delta_qm =   0.723223E-07 delta_en =   0.903832E-08 tol =   0.100000E-12
 Iteration #         39
  pAp =    1.9356749014136587E-011  rzold =    1.0387672476531107E-011  alpha =   0.53664344508185757     
 delta_qm =   0.416598E-07 delta_en =   0.299901E-08 tol =   0.100000E-12
 Iteration #         40
  pAp =    2.1268777516341993E-011  rzold =    4.0971032791048869E-012  alpha =   0.19263463901283714     
 delta_qm =   0.421407E-07 delta_en =   0.306865E-08 tol =   0.100000E-12
 Iteration #         41
  pAp =    4.6581695721691891E-012  rzold =    2.1900084663521613E-012  alpha =   0.47014356871777235     
 delta_qm =   0.263774E-07 delta_en =   0.120229E-08 tol =   0.100000E-12
 Iteration #         42
  pAp =    1.2123689227700647E-012  rzold =    1.0281395026198288E-012  alpha =   0.84804178275264452     
 delta_qm =   0.267170E-07 delta_en =   0.123344E-08 tol =   0.100000E-12
 Iteration #         43
  pAp =    2.6950511964196697E-012  rzold =    1.6403864767250915E-012  alpha =   0.60866616519356564     
 delta_qm =   0.368820E-07 delta_en =   0.235057E-08 tol =   0.100000E-12
 Iteration #         44
  pAp =    2.4767857693425204E-012  rzold =    1.4144001301304318E-012  alpha =   0.57106276515222953     
 delta_qm =   0.332229E-07 delta_en =   0.190730E-08 tol =   0.100000E-12
 Iteration #         45
  pAp =    7.8161402275369056E-012  rzold =    1.5779946981521756E-012  alpha =   0.20188925124357035     
 delta_qm =   0.301659E-07 delta_en =   0.157245E-08 tol =   0.100000E-12
 Iteration #         46
  pAp =    3.4657838807453142E-012  rzold =    1.1288371251215818E-012  alpha =   0.32570903552094144     
 delta_qm =   0.183290E-07 delta_en =   0.580525E-09 tol =   0.100000E-12
 Iteration #         47
  pAp =    1.4106403020079352E-012  rzold =    4.4915777274147028E-013  alpha =   0.31840701850225717     
 delta_qm =   0.114821E-07 delta_en =   0.227819E-09 tol =   0.100000E-12
 Iteration #         48
  pAp =    8.9261683372157273E-013  rzold =    2.3127671602481361E-013  alpha =   0.25909965764431686     
 delta_qm =   0.706487E-08 delta_en =   0.862487E-10 tol =   0.100000E-12
 Iteration #         49
  pAp =    4.4807106955268684E-013  rzold =    1.1732949664643870E-013  alpha =   0.26185465793087187     
 delta_qm =   0.388318E-08 delta_en =   0.260566E-10 tol =   0.100000E-12
 Iteration #         50
  pAp =    4.6300513573340482E-014  rzold =    2.0285954821840539E-014  alpha =   0.43813671288348416     
 delta_qm =   0.188251E-08 delta_en =   0.612376E-11 tol =   0.100000E-12
 Iteration #         51
  pAp =    1.1659236370174761E-014  rzold =    4.7648659429954591E-015  alpha =   0.40867736031017943     
 delta_qm =   0.949376E-09 delta_en =   0.155747E-11 tol =   0.100000E-12
 Iteration #         52
  pAp =    2.5264242359028377E-015  rzold =    1.1954125204578296E-015  alpha =   0.47316381131478480     
 delta_qm =   0.576540E-09 delta_en =   0.574384E-12 tol =   0.100000E-12
 Iteration #         53
  pAp =    5.8769499117969038E-016  rzold =    4.3678156458028703E-016  alpha =   0.74321131051930156     
 delta_qm =   0.410338E-09 delta_en =   0.290956E-12 tol =   0.100000E-12
 Iteration #         54
  pAp =    1.4362299802848707E-016  rzold =    1.2516647622213550E-016  alpha =   0.87149327016073852     
 delta_qm =   0.194611E-09 delta_en =   0.654450E-13 tol =   0.100000E-12
 Charges are converged, EXIT

%%%% DENSITY %%%%%%%%%%%%%%%%%%%%%%%%%%%%%%%%%%%%%%%%%%%%%%%%%%%%%%%%%%%%%%%%%%%
 density label              = velectrostatic                                                                  
 integral of density        =     0.2756819143E-11

%%%% CHARGES %%%%%%%%%%%%%%%%%%%%%%%%%%%%%%%%%%%%%%%%%%%%%%%%%%%%%%%%%%%%%%%%%%%
 total number of charges    =         11
 total charge               =      0.0000000

%%%% DENSITY %%%%%%%%%%%%%%%%%%%%%%%%%%%%%%%%%%%%%%%%%%%%%%%%%%%%%%%%%%%%%%%%%%%
 density label              = vsoftcavity                                                                     
 integral of density        =      11.47392029    

%%%% DENSITY %%%%%%%%%%%%%%%%%%%%%%%%%%%%%%%%%%%%%%%%%%%%%%%%%%%%%%%%%%%%%%%%%%%
 density label              = dvtot                                                                           
 integral of density        =      11.47392029    

%%%% ELECTRONS %%%%%%%%%%%%%%%%%%%%%%%%%%%%%%%%%%%%%%%%%%%%%%%%%%%%%%%%%%%%%%%%%
 number of electrons        =          8
 total electronic charge    =      8.0000000

%%%% ELECTRONS %%%%%%%%%%%%%%%%%%%%%%%%%%%%%%%%%%%%%%%%%%%%%%%%%%%%%%%%%%%%%%%%%
 number of electrons        =          8
 total electronic charge    =      8.0000000

%%%% BOUNDARY %%%%%%%%%%%%%%%%%%%%%%%%%%%%%%%%%%%%%%%%%%%%%%%%%%%%%%%%%%%%%%%%%%
 boundary label             = solvent              
 boundary mode              = electronic           
 boundary is built as a function of a smooth density
 function type              =  1 
 using the optimal SCCS function with parameters 
 rhomax                     =      0.0050000 
 rhomin                     =      0.0001000 
 volume of the QM region    =    229.5035101 
 surface of the QM region   =    180.4534844 

%%%% DIELECTRIC %%%%%%%%%%%%%%%%%%%%%%%%%%%%%%%%%%%%%%%%%%%%%%%%%%%%%%%%%%%%%%%%%
 dielectric build in the presence of dielectric regions
 environment bulk permitt.  =      1.0000000 
 number of dielec. regions  =    1 

%%%% FUNCTIONS %%%%%%%%%%%%%%%%%%%%%%%%%%%%%%%%%%%%%%%%%%%%%%%%%%%%%%%%%%%%%%%%%
 number of functions        =          1
 Scaled ERFC function, type = 4 
 number                     =   1 
 dimensionality             = 0 
 axis                       = 3 
 width                      =     6.000000 
 spread                     =     0.500000 
 max value                  =   100.000000 
 dielectric flags
 need gradient              =  F 
 need factor depend. sqrt   =  T 
 total dielectric charge    =      0.0001942

%%%% DENSITY %%%%%%%%%%%%%%%%%%%%%%%%%%%%%%%%%%%%%%%%%%%%%%%%%%%%%%%%%%%%%%%%%%%
 density label              = vreference                                                                      
 integral of density        =     0.7388455363E-12

%%%% COMPUTE ELECTROSTATIC POTENTIAL %%%%%%%%%%%%%%%%%%%%%%%%%%%%%%%%%%%%%%%%%%%
 Warning: bad guess with residual norm =   0.235302E+03, reset to no guess
 Iteration #          1
  pAp =    28.870926056251680       rzold =    28.402449217347030       alpha =   0.98377340449724837     
 delta_qm =   0.114982E-01 delta_en =   0.228457E+03 tol =   0.100000E-12
 Iteration #          2
  pAp =    26.778697969156241       rzold =    3.0907285770188651       alpha =   0.11541743293788116     
 delta_qm =   0.268798E-02 delta_en =   0.124852E+02 tol =   0.100000E-12
 Iteration #          3
  pAp =    1.3245865527199951       rzold =   0.20000238694832206       alpha =   0.15099231268626706     
 delta_qm =   0.845713E-03 delta_en =   0.123592E+01 tol =   0.100000E-12
 Iteration #          4
  pAp =   0.16790180296849228       rzold =    2.1414506611338351E-002  alpha =   0.12754185025253661     
 delta_qm =   0.548817E-03 delta_en =   0.520474E+00 tol =   0.100000E-12
 Iteration #          5
  pAp =    6.0571275743046523E-003  rzold =    1.7260915585597370E-003  alpha =   0.28496866499594725     
 delta_qm =   0.348175E-03 delta_en =   0.209478E+00 tol =   0.100000E-12
 Iteration #          6
  pAp =    1.5097355538093850E-003  rzold =    6.2813390361726891E-004  alpha =   0.41605558141116372     
 delta_qm =   0.273423E-03 delta_en =   0.129186E+00 tol =   0.100000E-12
 Iteration #          7
  pAp =    9.0512686312467798E-004  rzold =    2.8647258674750672E-004  alpha =   0.31649992771018459     
 delta_qm =   0.298794E-03 delta_en =   0.154272E+00 tol =   0.100000E-12
 Iteration #          8
  pAp =    6.6736685854782262E-005  rzold =    1.1229136317586006E-004  alpha =    1.6826032299566671     
 delta_qm =   0.269136E-03 delta_en =   0.125166E+00 tol =   0.100000E-12
 Iteration #          9
  pAp =    5.5725814520260584E-004  rzold =    4.1074690125136464E-004  alpha =   0.73708550478347301     
 delta_qm =   0.237348E-03 delta_en =   0.973451E-01 tol =   0.100000E-12
 Iteration #         10
  pAp =    1.0496699664348007E-003  rzold =    2.5016693177324625E-004  alpha =   0.23832913179647991     
 delta_qm =   0.210052E-03 delta_en =   0.762429E-01 tol =   0.100000E-12
 Iteration #         11
  pAp =    4.1291264899281726E-004  rzold =    1.0501822810403710E-004  alpha =   0.25433521680723303     
 delta_qm =   0.174816E-03 delta_en =   0.528087E-01 tol =   0.100000E-12
 Iteration #         12
  pAp =    1.3433602957689240E-004  rzold =    5.8416383067195854E-005  alpha =   0.43485268435568125     
 delta_qm =   0.136337E-03 delta_en =   0.321198E-01 tol =   0.100000E-12
 Iteration #         13
  pAp =    6.5450038014044134E-005  rzold =    4.0908938663436355E-005  alpha =   0.62504071662507210     
 delta_qm =   0.118721E-03 delta_en =   0.243557E-01 tol =   0.100000E-12
 Iteration #         14
  pAp =    8.5301296586853725E-005  rzold =    4.8519801518569249E-005  alpha =   0.56880497085019588     
 delta_qm =   0.130384E-03 delta_en =   0.293759E-01 tol =   0.100000E-12
 Iteration #         15
  pAp =    6.8084179222295690E-005  rzold =    4.1857186868999240E-005  alpha =   0.61478580409018380     
 delta_qm =   0.982642E-04 delta_en =   0.166853E-01 tol =   0.100000E-12
 Iteration #         16
  pAp =    1.2347381614855724E-004  rzold =    5.0407361929619284E-005  alpha =   0.40824333046426442     
 delta_qm =   0.840634E-04 delta_en =   0.122112E-01 tol =   0.100000E-12
 Iteration #         17
  pAp =    4.7472019793353279E-005  rzold =    1.6059796858227759E-005  alpha =   0.33830026462190571     
 delta_qm =   0.816773E-04 delta_en =   0.115278E-01 tol =   0.100000E-12
 Iteration #         18
  pAp =    2.6208236570207987E-005  rzold =    1.2997812080989378E-005  alpha =   0.49594378645698511     
 delta_qm =   0.764256E-04 delta_en =   0.100930E-01 tol =   0.100000E-12
 Iteration #         19
  pAp =    4.1260178016030215E-005  rzold =    2.8500127038045019E-005  alpha =   0.69074173715324927     
 delta_qm =   0.990345E-04 delta_en =   0.169479E-01 tol =   0.100000E-12
 Iteration #         20
  pAp =    4.3408949532568345E-005  rzold =    3.4129633497753771E-005  alpha =   0.78623495535517163     
 delta_qm =   0.921043E-04 delta_en =   0.146590E-01 tol =   0.100000E-12
 Iteration #         21
  pAp =    4.0980753085936863E-005  rzold =    2.0772155259348825E-005  alpha =   0.50687587941074441     
 delta_qm =   0.814960E-04 delta_en =   0.114767E-01 tol =   0.100000E-12
 Iteration #         22
  pAp =    1.5471577517215597E-005  rzold =    9.5052547706756235E-006  alpha =   0.61436881663158771     
 delta_qm =   0.537022E-04 delta_en =   0.498343E-02 tol =   0.100000E-12
 Iteration #         23
  pAp =    8.3324682678574553E-006  rzold =    5.6541935549570195E-006  alpha =   0.67857366787319240     
 delta_qm =   0.389027E-04 delta_en =   0.261519E-02 tol =   0.100000E-12
 Iteration #         24
  pAp =    8.6987412584703495E-006  rzold =    3.9597760603337544E-006  alpha =   0.45521253508695242     
 delta_qm =   0.295007E-04 delta_en =   0.150386E-02 tol =   0.100000E-12
 Iteration #         25
  pAp =    4.7280653569266123E-006  rzold =    2.2941538500393765E-006  alpha =   0.48522041825806039     
 delta_qm =   0.184071E-04 delta_en =   0.585484E-03 tol =   0.100000E-12
 Iteration #         26
  pAp =    1.4972599893638122E-006  rzold =    4.8089246839087195E-007  alpha =   0.32118167306080475     
[...]
 delta_qm =   0.152094E-07 delta_en =   0.399731E-09 tol =   0.100000E-12
 Iteration #         42
  pAp =    2.9351753445928648E-013  rzold =    2.3177686641487075E-013  alpha =   0.78965253930006796     
 delta_qm =   0.891986E-08 delta_en =   0.137486E-09 tol =   0.100000E-12
 Iteration #         43
  pAp =    2.1330872435604401E-013  rzold =    1.5666738623451376E-013  alpha =   0.73446309665709020     
 delta_qm =   0.114494E-07 delta_en =   0.226520E-09 tol =   0.100000E-12
 Iteration #         44
  pAp =    1.8335098239128976E-013  rzold =    1.4539693840282668E-013  alpha =   0.79299786947710338     
 delta_qm =   0.119209E-07 delta_en =   0.245562E-09 tol =   0.100000E-12
 Iteration #         45
  pAp =    3.6336991370175650E-013  rzold =    2.0053041236662863E-013  alpha =   0.55186300462734006     
 delta_qm =   0.103045E-07 delta_en =   0.183482E-09 tol =   0.100000E-12
 Iteration #         46
  pAp =    1.1480824420787301E-012  rzold =    2.5554048481824336E-013  alpha =   0.22258025682855934     
 delta_qm =   0.860182E-08 delta_en =   0.127857E-09 tol =   0.100000E-12
 Iteration #         47
  pAp =    6.9767706307114442E-013  rzold =    1.9963655580331583E-013  alpha =   0.28614464538152407     
 delta_qm =   0.624656E-08 delta_en =   0.674257E-10 tol =   0.100000E-12
 Iteration #         48
  pAp =    1.8652326846018080E-013  rzold =    7.0659208894997952E-014  alpha =   0.37882248943156582     
 delta_qm =   0.378467E-08 delta_en =   0.247515E-10 tol =   0.100000E-12
 Iteration #         49
  pAp =    4.2051208450680531E-014  rzold =    1.8716456997006265E-014  alpha =   0.44508725638545515     
 delta_qm =   0.175882E-08 delta_en =   0.534547E-11 tol =   0.100000E-12
 Iteration #         50
  pAp =    7.8620307664281762E-015  rzold =    3.4327215018574965E-015  alpha =   0.43662020714999400     
 delta_qm =   0.847520E-09 delta_en =   0.124121E-11 tol =   0.100000E-12
 Iteration #         51
  pAp =    1.1297393832026799E-014  rzold =    1.8705124460965743E-015  alpha =   0.16557026106267880     
 delta_qm =   0.596421E-09 delta_en =   0.614681E-12 tol =   0.100000E-12
 Iteration #         52
  pAp =    7.2730652687185364E-016  rzold =    4.0038375257092409E-016  alpha =   0.55050207550449903     
 delta_qm =   0.295177E-09 delta_en =   0.150559E-12 tol =   0.100000E-12
 Iteration #         53
  pAp =    5.8864015169887932E-016  rzold =    1.7518808594073807E-016  alpha =   0.29761491028963322     
 delta_qm =   0.215229E-09 delta_en =   0.800473E-13 tol =   0.100000E-12
 Charges are converged, EXIT

%%%% DENSITY %%%%%%%%%%%%%%%%%%%%%%%%%%%%%%%%%%%%%%%%%%%%%%%%%%%%%%%%%%%%%%%%%%%
 density label              = velectrostatic                                                                  
 integral of density        =    -0.9544561764E-12

%%%% CHARGES %%%%%%%%%%%%%%%%%%%%%%%%%%%%%%%%%%%%%%%%%%%%%%%%%%%%%%%%%%%%%%%%%%%
 total number of charges    =         11
 total charge               =      0.0000000

%%%% DENSITY %%%%%%%%%%%%%%%%%%%%%%%%%%%%%%%%%%%%%%%%%%%%%%%%%%%%%%%%%%%%%%%%%%%
 density label              = vsoftcavity                                                                     
 integral of density        =      12.36695128    

%%%% DENSITY %%%%%%%%%%%%%%%%%%%%%%%%%%%%%%%%%%%%%%%%%%%%%%%%%%%%%%%%%%%%%%%%%%%
 density label              = dvtot                                                                           
 integral of density        =      12.36695128    

%%%% ELECTRONS %%%%%%%%%%%%%%%%%%%%%%%%%%%%%%%%%%%%%%%%%%%%%%%%%%%%%%%%%%%%%%%%%
 number of electrons        =          8
 total electronic charge    =      8.0000000

%%%% ELECTRONS %%%%%%%%%%%%%%%%%%%%%%%%%%%%%%%%%%%%%%%%%%%%%%%%%%%%%%%%%%%%%%%%%
 number of electrons        =          8
 total electronic charge    =      8.0000000

%%%% BOUNDARY %%%%%%%%%%%%%%%%%%%%%%%%%%%%%%%%%%%%%%%%%%%%%%%%%%%%%%%%%%%%%%%%%%
 boundary label             = solvent              
 boundary mode              = electronic           
 boundary is built as a function of a smooth density
 function type              =  1 
 using the optimal SCCS function with parameters 
 rhomax                     =      0.0050000 
 rhomin                     =      0.0001000 
 volume of the QM region    =    230.8449073 
 surface of the QM region   =    181.1222704 

%%%% DIELECTRIC %%%%%%%%%%%%%%%%%%%%%%%%%%%%%%%%%%%%%%%%%%%%%%%%%%%%%%%%%%%%%%%%%
 dielectric build in the presence of dielectric regions
 environment bulk permitt.  =      1.0000000 
 number of dielec. regions  =    1 

%%%% FUNCTIONS %%%%%%%%%%%%%%%%%%%%%%%%%%%%%%%%%%%%%%%%%%%%%%%%%%%%%%%%%%%%%%%%%
 number of functions        =          1
 Scaled ERFC function, type = 4 
 number                     =   1 
 dimensionality             = 0 
 axis                       = 3 
 width                      =     6.000000 
 spread                     =     0.500000 
 max value                  =   100.000000 
 dielectric flags
 need gradient              =  F 
 need factor depend. sqrt   =  T 
 total dielectric charge    =     -0.0001091

%%%% DENSITY %%%%%%%%%%%%%%%%%%%%%%%%%%%%%%%%%%%%%%%%%%%%%%%%%%%%%%%%%%%%%%%%%%%
 density label              = vreference                                                                      
 integral of density        =     0.1001732515E-11

%%%% COMPUTE ELECTROSTATIC POTENTIAL %%%%%%%%%%%%%%%%%%%%%%%%%%%%%%%%%%%%%%%%%%%
 Warning: bad guess with residual norm =   0.235094E+03, reset to no guess
 Iteration #          1
  pAp =    28.913481592528672       rzold =    28.442277774880633       alpha =   0.98370297204990353     
 delta_qm =   0.114924E-01 delta_en =   0.228227E+03 tol =   0.100000E-12
 Iteration #          2
  pAp =    26.380798244662241       rzold =    3.0755556018549952       alpha =   0.11658311372277326     
 delta_qm =   0.267457E-02 delta_en =   0.123609E+02 tol =   0.100000E-12
 Iteration #          3
  pAp =    1.3232773598388647       rzold =   0.19956946002358839       alpha =   0.15081453524444030     
 delta_qm =   0.843455E-03 delta_en =   0.122933E+01 tol =   0.100000E-12
 Iteration #          4
  pAp =   0.17467186157209680       rzold =    2.1831517106708592E-002  alpha =   0.12498588444766480     
 delta_qm =   0.557220E-03 delta_en =   0.536534E+00 tol =   0.100000E-12
 Iteration #          5
  pAp =    6.4874348129631389E-003  rzold =    1.8098774170659771E-003  alpha =   0.27898198120611478     
 delta_qm =   0.358402E-03 delta_en =   0.221964E+00 tol =   0.100000E-12
 Iteration #          6
  pAp =    1.5481102410250976E-003  rzold =    6.5036733161056648E-004  alpha =   0.42010401738568620     
 delta_qm =   0.280598E-03 delta_en =   0.136054E+00 tol =   0.100000E-12
 Iteration #          7
  pAp =    9.4913067508646152E-004  rzold =    3.0395513677129385E-004  alpha =   0.32024582573269472     
 delta_qm =   0.308066E-03 delta_en =   0.163995E+00 tol =   0.100000E-12
 Iteration #          8
  pAp =    7.2860059550283152E-005  rzold =    1.2056928767417096E-004  alpha =    1.6548063289868997     
 delta_qm =   0.276887E-03 delta_en =   0.132479E+00 tol =   0.100000E-12
 Iteration #          9
  pAp =    6.0181740729409877E-004  rzold =    4.5098978349753286E-004  alpha =   0.74937975876317775     
 delta_qm =   0.245562E-03 delta_en =   0.104199E+00 tol =   0.100000E-12
 Iteration #         10
  pAp =    1.2000949005841837E-003  rzold =    2.6550464526857442E-004  alpha =   0.22123637483946623     
 delta_qm =   0.220372E-03 delta_en =   0.839185E-01 tol =   0.100000E-12
 Iteration #         11
  pAp =    3.9950425202501925E-004  rzold =    1.0672075299558465E-004  alpha =   0.26713295904770790     
 delta_qm =   0.182883E-03 delta_en =   0.577953E-01 tol =   0.100000E-12
 Iteration #         12
  pAp =    1.3555708902664024E-004  rzold =    6.4840767106292424E-005  alpha =   0.47832811675049797     
 delta_qm =   0.141112E-03 delta_en =   0.344089E-01 tol =   0.100000E-12
 Iteration #         13
  pAp =    8.5915755893707646E-005  rzold =    4.9570883301165156E-005  alpha =   0.57697081036559517     
 delta_qm =   0.130482E-03 delta_en =   0.294202E-01 tol =   0.100000E-12
 Iteration #         14
  pAp =    8.4865187314469987E-005  rzold =    5.2672571808410002E-005  alpha =   0.62066170446581970     
 delta_qm =   0.136223E-03 delta_en =   0.320661E-01 tol =   0.100000E-12
 Iteration #         15
  pAp =    9.1912994585745126E-005  rzold =    5.2925259810960498E-005  alpha =   0.57581912165408577     
 delta_qm =   0.104641E-03 delta_en =   0.189212E-01 tol =   0.100000E-12
 Iteration #         16
  pAp =    1.3609501487881363E-004  rzold =    5.5501891888890957E-005  alpha =   0.40781722929611236     
 delta_qm =   0.932885E-04 delta_en =   0.150383E-01 tol =   0.100000E-12
 Iteration #         17
  pAp =    3.8395092829214246E-005  rzold =    1.6638099156592631E-005  alpha =   0.43333920901300577     
 delta_qm =   0.880335E-04 delta_en =   0.133918E-01 tol =   0.100000E-12
 Iteration #         18
  pAp =    9.1488825304307786E-006  rzold =    1.3459617015530529E-005  alpha =    1.4711760666684151     
 delta_qm =   0.967229E-04 delta_en =   0.161660E-01 tol =   0.100000E-12
 Iteration #         19
  pAp =    3.6535304734978525E-005  rzold =    3.5426945418206405E-005  alpha =   0.96966333455237375     
 delta_qm =   0.102426E-03 delta_en =   0.181287E-01 tol =   0.100000E-12
 Iteration #         20
  pAp =    5.6789098868702248E-005  rzold =    2.8359712636877227E-005  alpha =   0.49938655836828050     
 delta_qm =   0.952489E-04 delta_en =   0.156770E-01 tol =   0.100000E-12
 Iteration #         21
  pAp =    2.3801550570590097E-005  rzold =    1.4018701092463658E-005  alpha =   0.58898268206885573     
 delta_qm =   0.671513E-04 delta_en =   0.779208E-02 tol =   0.100000E-12
 Iteration #         22
  pAp =    2.0746869611409349E-005  rzold =    9.1157835677799389E-006  alpha =   0.43938115670071431     
 delta_qm =   0.519055E-04 delta_en =   0.465554E-02 tol =   0.100000E-12
 Iteration #         23
  pAp =    3.9201551211124616E-005  rzold =    1.1196804457102131E-005  alpha =   0.28562146423238227     
 delta_qm =   0.432928E-04 delta_en =   0.323874E-02 tol =   0.100000E-12
 Iteration #         24
  pAp =    1.6337573479238801E-005  rzold =    5.9128673726838084E-006  alpha =   0.36191833384545552     
 delta_qm =   0.337510E-04 delta_en =   0.196841E-02 tol =   0.100000E-12
 Iteration #         25
  pAp =    5.9196672467715431E-006  rzold =    2.7393005877310795E-006  alpha =   0.46274570403007603     
 delta_qm =   0.214862E-04 delta_en =   0.797747E-03 tol =   0.100000E-12
 Iteration #         26
  pAp =    7.5347638027362182E-006  rzold =    1.1387683462610938E-006  alpha =   0.15113524140565027     
 delta_qm =   0.165358E-04 delta_en =   0.472494E-03 tol =   0.100000E-12
 Iteration #         27
  pAp =    1.4391188813801574E-006  rzold =    5.2088534207084694E-007  alpha =   0.36194740324114333     
 delta_qm =   0.997373E-05 delta_en =   0.171893E-03 tol =   0.100000E-12
 Iteration #         28
  pAp =    2.1618996414053903E-007  rzold =    1.1378631637765099E-007  alpha =   0.52632561751886742     
 delta_qm =   0.507387E-05 delta_en =   0.444859E-04 tol =   0.100000E-12
 Iteration #         29
  pAp =    1.0125634123606399E-007  rzold =    4.3146749542484169E-008  alpha =   0.42611404891565247     
 delta_qm =   0.271356E-05 delta_en =   0.127240E-04 tol =   0.100000E-12
 Iteration #         30
  pAp =    1.7721443158599176E-008  rzold =    1.0345889614514173E-008  alpha =   0.58380626915782075     
 delta_qm =   0.119165E-05 delta_en =   0.245380E-05 tol =   0.100000E-12
 Iteration #         31
  pAp =    3.4179628932352497E-009  rzold =    2.1057874332379149E-009  alpha =   0.61609429330132259     
 delta_qm =   0.713798E-06 delta_en =   0.880429E-06 tol =   0.100000E-12
 Iteration #         32
  pAp =    1.6881142129125809E-009  rzold =    9.2800234774989826E-010  alpha =   0.54972722855568712     
 delta_qm =   0.512597E-06 delta_en =   0.454041E-06 tol =   0.100000E-12
 Iteration #         33
  pAp =    4.1054574340730515E-010  rzold =    2.5959205874019266E-010  alpha =   0.63230970703951417     
 delta_qm =   0.280449E-06 delta_en =   0.135910E-06 tol =   0.100000E-12
 Iteration #         34
  pAp =    1.2435755370059653E-009  rzold =    2.6090465761250790E-010  alpha =   0.20980201833228596     
 delta_qm =   0.200543E-06 delta_en =   0.694956E-07 tol =   0.100000E-12
 Iteration #         35
  pAp =    3.1291013982073302E-010  rzold =    1.2035478161304975E-010  alpha =   0.38463049385999859     
 delta_qm =   0.134119E-06 delta_en =   0.310833E-07 tol =   0.100000E-12
 Iteration #         36
  pAp =    7.9164590988451287E-011  rzold =    4.0321641710130640E-011  alpha =   0.50933935496506078     
 delta_qm =   0.122917E-06 delta_en =   0.261076E-07 tol =   0.100000E-12
 Iteration #         37
  pAp =    1.2760106001738609E-011  rzold =    1.5774566411311004E-011  alpha =    1.2362410162706849     
 delta_qm =   0.719873E-07 delta_en =   0.895479E-08 tol =   0.100000E-12
 Iteration #         38
  pAp =    4.9590084040345066E-011  rzold =    1.6568328681501545E-011  alpha =   0.33410567862764723     
 delta_qm =   0.534389E-07 delta_en =   0.493468E-08 tol =   0.100000E-12
 Iteration #         39
  pAp =    5.4629614870695818E-011  rzold =    1.2104565357760388E-011  alpha =   0.22157515454595428     
 delta_qm =   0.350222E-07 delta_en =   0.211949E-08 tol =   0.100000E-12
 Iteration #         40
  pAp =    1.3808506868088115E-011  rzold =    3.1864791493740382E-012  alpha =   0.23076203530289649     
 delta_qm =   0.273227E-07 delta_en =   0.129000E-08 tol =   0.100000E-12
 Iteration #         41
  pAp =    1.4339817863975679E-012  rzold =    6.9662764066533503E-013  alpha =   0.48579950406162042     
 delta_qm =   0.147952E-07 delta_en =   0.378258E-09 tol =   0.100000E-12
 Iteration #         42
  pAp =    2.7875343663414235E-013  rzold =    2.0734267115903629E-013  alpha =   0.74382104006548588     
 delta_qm =   0.780239E-08 delta_en =   0.105196E-09 tol =   0.100000E-12
 Iteration #         43
  pAp =    1.7514250255045827E-013  rzold =    1.2385785740434954E-013  alpha =   0.70718332558178620     
 delta_qm =   0.950540E-08 delta_en =   0.156129E-09 tol =   0.100000E-12
 Iteration #         44
  pAp =    1.2496001325358162E-013  rzold =    1.0340440523937096E-013  alpha =   0.82749995416159394     
 delta_qm =   0.100442E-07 delta_en =   0.174332E-09 tol =   0.100000E-12
 Iteration #         45
  pAp =    3.4335461513232674E-013  rzold =    1.5131373092306345E-013  alpha =   0.44069228795642684     
 delta_qm =   0.946403E-08 delta_en =   0.154773E-09 tol =   0.100000E-12
 Iteration #         46
  pAp =    1.2756443750813667E-012  rzold =    2.7887551059474830E-013  alpha =   0.21861540413797559     
 delta_qm =   0.802000E-08 delta_en =   0.111146E-09 tol =   0.100000E-12
 Iteration #         47
  pAp =    2.7851629799159401E-013  rzold =    1.2419671039159496E-013  alpha =   0.44592259514860916     
 delta_qm =   0.573693E-08 delta_en =   0.568726E-10 tol =   0.100000E-12
 Iteration #         48
  pAp =    1.6490436863467978E-013  rzold =    5.9160709944429869E-014  alpha =   0.35875768746606895     
 delta_qm =   0.364078E-08 delta_en =   0.229051E-10 tol =   0.100000E-12
 Iteration #         49
  pAp =    4.4457368909127668E-014  rzold =    1.8549482565555287E-014  alpha =   0.41724202355454376     
 delta_qm =   0.173474E-08 delta_en =   0.520012E-11 tol =   0.100000E-12
 Iteration #         50
  pAp =    6.2441175854409881E-015  rzold =    3.2254882522963049E-015  alpha =   0.51656430362826133     
 delta_qm =   0.707435E-09 delta_en =   0.864803E-12 tol =   0.100000E-12
 Iteration #         51
  pAp =    7.3428448582249365E-016  rzold =    4.5369337439535228E-016  alpha =   0.61787138793645757     
 delta_qm =   0.346211E-09 delta_en =   0.207122E-12 tol =   0.100000E-12
 Iteration #         52
  pAp =    1.6051930345077958E-015  rzold =    3.3679462269979456E-016  alpha =   0.20981565173752870     
 delta_qm =   0.260790E-09 delta_en =   0.117524E-12 tol =   0.100000E-12
 Iteration #         53
  pAp =    2.8743832275040905E-016  rzold =    8.7928670953713654E-017  alpha =   0.30590448104605955     
 delta_qm =   0.183827E-09 delta_en =   0.583931E-13 tol =   0.100000E-12
 Charges are converged, EXIT

%%%% DENSITY %%%%%%%%%%%%%%%%%%%%%%%%%%%%%%%%%%%%%%%%%%%%%%%%%%%%%%%%%%%%%%%%%%%
 density label              = velectrostatic                                                                  
 integral of density        =     0.4886166703E-13

%%%% CHARGES %%%%%%%%%%%%%%%%%%%%%%%%%%%%%%%%%%%%%%%%%%%%%%%%%%%%%%%%%%%%%%%%%%%
 total number of charges    =         11
 total charge               =     -0.0000000

%%%% DENSITY %%%%%%%%%%%%%%%%%%%%%%%%%%%%%%%%%%%%%%%%%%%%%%%%%%%%%%%%%%%%%%%%%%%
 density label              = vsoftcavity                                                                     
 integral of density        =      12.37175451    

%%%% DENSITY %%%%%%%%%%%%%%%%%%%%%%%%%%%%%%%%%%%%%%%%%%%%%%%%%%%%%%%%%%%%%%%%%%%
 density label              = dvtot                                                                           
 integral of density        =      12.37175451    

%%%% ELECTRONS %%%%%%%%%%%%%%%%%%%%%%%%%%%%%%%%%%%%%%%%%%%%%%%%%%%%%%%%%%%%%%%%%
 number of electrons        =          8
 total electronic charge    =      8.0000000

%%%% ELECTRONS %%%%%%%%%%%%%%%%%%%%%%%%%%%%%%%%%%%%%%%%%%%%%%%%%%%%%%%%%%%%%%%%%
 number of electrons        =          8
 total electronic charge    =      8.0000000

%%%% BOUNDARY %%%%%%%%%%%%%%%%%%%%%%%%%%%%%%%%%%%%%%%%%%%%%%%%%%%%%%%%%%%%%%%%%%
 boundary label             = solvent              
 boundary mode              = electronic           
 boundary is built as a function of a smooth density
 function type              =  1 
 using the optimal SCCS function with parameters 
 rhomax                     =      0.0050000 
 rhomin                     =      0.0001000 
 volume of the QM region    =    230.8449073 
 surface of the QM region   =    181.1222704 

%%%% DIELECTRIC %%%%%%%%%%%%%%%%%%%%%%%%%%%%%%%%%%%%%%%%%%%%%%%%%%%%%%%%%%%%%%%%%
 dielectric build in the presence of dielectric regions
 environment bulk permitt.  =      1.0000000 
 number of dielec. regions  =    1 

%%%% FUNCTIONS %%%%%%%%%%%%%%%%%%%%%%%%%%%%%%%%%%%%%%%%%%%%%%%%%%%%%%%%%%%%%%%%%
 number of functions        =          1
 Scaled ERFC function, type = 4 
 number                     =   1 
 dimensionality             = 0 
 axis                       = 3 
 width                      =     6.000000 
 spread                     =     0.500000 
 max value                  =   100.000000 
 dielectric flags
 need gradient              =  F 
 need factor depend. sqrt   =  T 
 total dielectric charge    =     -0.0001265

%%%% DENSITY %%%%%%%%%%%%%%%%%%%%%%%%%%%%%%%%%%%%%%%%%%%%%%%%%%%%%%%%%%%%%%%%%%%
 density label              = dvtot                                                                           
 integral of density        =      12.37175451    

%%%% DENSITY %%%%%%%%%%%%%%%%%%%%%%%%%%%%%%%%%%%%%%%%%%%%%%%%%%%%%%%%%%%%%%%%%%%
 density label              = vreference                                                                      
 integral of density        =     0.1001732515E-11

%%%% DENSITY %%%%%%%%%%%%%%%%%%%%%%%%%%%%%%%%%%%%%%%%%%%%%%%%%%%%%%%%%%%%%%%%%%%
 density label              = velectrostatic                                                                  
 integral of density        =     0.4886166703E-13

%%%% CHARGES %%%%%%%%%%%%%%%%%%%%%%%%%%%%%%%%%%%%%%%%%%%%%%%%%%%%%%%%%%%%%%%%%%%
 total number of charges    =         11
 total charge               =     -0.0000000

%%%% DENSITY %%%%%%%%%%%%%%%%%%%%%%%%%%%%%%%%%%%%%%%%%%%%%%%%%%%%%%%%%%%%%%%%%%%
 density label              = vsoftcavity                                                                     
 integral of density        =      12.37175451    
