
     Program PWSCF v.6.4.1 starts on 24Apr2019 at 12:56: 1 

     This program is part of the open-source Quantum ESPRESSO suite
     for quantum simulation of materials; please cite
         "P. Giannozzi et al., J. Phys.:Condens. Matter 21 395502 (2009);
         "P. Giannozzi et al., J. Phys.:Condens. Matter 29 465901 (2017);
          URL http://www.quantum-espresso.org", 
     in publications or presentations arising from this work. More details at
     http://www.quantum-espresso.org/quote

     Parallel version (MPI), running on     1 processors

     MPI processes distributed on     1 nodes
     Reading input from pw.in

     Current dimensions of program PWSCF are:
     Max number of different atomic species (ntypx) = 10
     Max number of k-points (npk) =  40000
     Max angular momentum in pseudopotentials (lmaxx) =  3
               file H.pbe-rrkjus.UPF: wavefunction(s)  1S renormalized
               file O.pbe-rrkjus.UPF: wavefunction(s)  2S renormalized

     gamma-point specific algorithms are used

     Subspace diagonalization in iterative solution of the eigenvalue problem:
     a serial algorithm will be used

 
     G-vector sticks info
     --------------------
     sticks:   dense  smooth     PW     G-vecs:    dense   smooth      PW
     Sum        9549    3809    949               701475   177509   22119
 


     bravais-lattice index     =            1
     lattice parameter (alat)  =      20.0000  a.u.
     unit-cell volume          =    8000.0000 (a.u.)^3
     number of atoms/cell      =            3
     number of atomic types    =            2
     number of electrons       =         8.00
     number of Kohn-Sham states=            4
     kinetic-energy cutoff     =      30.0000  Ry
     charge density cutoff     =     300.0000  Ry
     convergence threshold     =      1.0E-08
     mixing beta               =       0.3000
     number of iterations used =            8  plain     mixing
     Exchange-correlation      = SLA PW PBE PBE ( 1  4  3  4 0 0)
 

     Environ Module
     ==============

     Plese cite
         O. Andreussi, I. Dabo and N. Marzari, J. Chem. Phys. 136, 064102 (2012)         
     in publications or presentations arising from this work.

     compensation onset threshold      =               0.1000E+03 
     switching function adopted        =                     SCCS 
     density limit for vacuum region   =               0.5000E-02 
     density limit for bulk solvent    =               0.1000E-03 

     Electrostatic Setup
     -------------------
     electrostatic problem to solve    = generalized              
     numerical solver adopted          = cg                       
     type of auxiliary density adopted = none                     
     type of core tool for poisson     = fft                      
     type of core tool for s(r) deriv  = analytic                 



     celldm(1)=  20.000000  celldm(2)=   0.000000  celldm(3)=   0.000000
     celldm(4)=   0.000000  celldm(5)=   0.000000  celldm(6)=   0.000000

     crystal axes: (cart. coord. in units of alat)
               a(1) = (   1.000000   0.000000   0.000000 )  
               a(2) = (   0.000000   1.000000   0.000000 )  
               a(3) = (   0.000000   0.000000   1.000000 )  

     reciprocal axes: (cart. coord. in units 2 pi/alat)
               b(1) = (  1.000000  0.000000  0.000000 )  
               b(2) = (  0.000000  1.000000  0.000000 )  
               b(3) = (  0.000000  0.000000  1.000000 )  


     PseudoPot. # 1 for H  read from file:
     /home/fnattino/Programs/quantumespresso/q-e-qe-6.4.1-develop/Environ/tests/../..//pseudo/H.pbe-rrkjus.UPF
     MD5 check sum: 2d52a7f45632fd764c17cc6affed14c8
     Pseudo is Ultrasoft, Zval =  1.0
     Generated by new atomic code, or converted to UPF format
     Using radial grid of 1061 points,  2 beta functions with: 
                l(1) =   0
                l(2) =   0
     Q(r) pseudized with 0 coefficients 


     PseudoPot. # 2 for O  read from file:
     /home/fnattino/Programs/quantumespresso/q-e-qe-6.4.1-develop/Environ/tests/../..//pseudo/O.pbe-rrkjus.UPF
     MD5 check sum: fadcf19ee70a498d3030e2e79cf929a4
     Pseudo is Ultrasoft, Zval =  6.0
     Generated by new atomic code, or converted to UPF format
     Using radial grid of 1269 points,  4 beta functions with: 
                l(1) =   0
                l(2) =   0
                l(3) =   1
                l(4) =   1
     Q(r) pseudized with 0 coefficients 


     atomic species   valence    mass     pseudopotential
        H              1.00     1.00000     H ( 1.00)
        O              6.00    16.00000     O ( 1.00)

     No symmetry found



   Cartesian axes

     site n.     atom                  positions (alat units)
         1           O   tau(   1) = (   0.5895000   0.6025000   0.5750000  )
         2           H   tau(   2) = (   0.6725000   0.5610000   0.5750000  )
         3           H   tau(   3) = (   0.5280000   0.5330000   0.5750000  )

     number of k points=     1
                       cart. coord. in units 2pi/alat
        k(    1) = (   0.0000000   0.0000000   0.0000000), wk =   2.0000000

     Dense  grid:   350738 G-vectors     FFT dimensions: ( 120, 120, 120)

     Smooth grid:    88755 G-vectors     FFT dimensions: (  72,  72,  72)

     Estimated max dynamical RAM per process >     548.70 MB

     Initial potential from superposition of free atoms

     starting charge    7.80759, renormalised to    8.00000

     negative rho (up, down):  7.936E-04 0.000E+00
     Starting wfcs are    6 randomized atomic wfcs

     total cpu time spent up to now is        3.4 secs

     Self-consistent Calculation

     iteration #  1     ecut=    30.00 Ry     beta= 0.30
     Davidson diagonalization with overlap
     ethr =  1.00E-02,  avg # of iterations =  2.0

     negative rho (up, down):  5.577E-04 0.000E+00

     add environment contribution to local potential
     polarization accuracy = 6.1E-14, # of iterations =  37

     total cpu time spent up to now is        9.1 secs

     total energy              =     -34.29318214 Ry
     Harris-Foulkes estimate   =     -34.58698941 Ry
     estimated scf accuracy    <       0.68459185 Ry
     electrostatic embedding   =       0.00000000 Ry
     correction to one-el term =       0.00000000 Ry

     iteration #  2     ecut=    30.00 Ry     beta= 0.30
     Davidson diagonalization with overlap
     ethr =  8.56E-03,  avg # of iterations =  1.0

     negative rho (up, down):  6.653E-04 0.000E+00

     add environment contribution to local potential
     polarization accuracy = 8.3E-14, # of iterations =  49

     total cpu time spent up to now is       15.8 secs

     total energy              =     -34.26597143 Ry
     Harris-Foulkes estimate   =     -33.48919355 Ry
     estimated scf accuracy    <       0.16577401 Ry
     electrostatic embedding   =      -0.04580951 Ry
     correction to one-el term =      -0.82245966 Ry

     iteration #  3     ecut=    30.00 Ry     beta= 0.30
     Davidson diagonalization with overlap
     ethr =  2.07E-03,  avg # of iterations =  2.0

     negative rho (up, down):  1.673E-03 0.000E+00

     add environment contribution to local potential
     polarization accuracy = 6.8E-14, # of iterations =  54

     total cpu time spent up to now is       23.0 secs

     total energy              =     -34.28527802 Ry
     Harris-Foulkes estimate   =     -33.80036720 Ry
     estimated scf accuracy    <       0.03982399 Ry
     electrostatic embedding   =      -0.03656140 Ry
     correction to one-el term =      -0.46859898 Ry

     iteration #  4     ecut=    30.00 Ry     beta= 0.30
     Davidson diagonalization with overlap
     ethr =  4.98E-04,  avg # of iterations =  2.0

     negative rho (up, down):  1.748E-03 0.000E+00

     add environment contribution to local potential
     polarization accuracy = 6.2E-14, # of iterations =  54

     total cpu time spent up to now is       30.7 secs

     total energy              =     -34.28988238 Ry
     Harris-Foulkes estimate   =     -34.04860463 Ry
     estimated scf accuracy    <       0.02751581 Ry
     electrostatic embedding   =      -0.02974969 Ry
     correction to one-el term =      -0.22437198 Ry

     iteration #  5     ecut=    30.00 Ry     beta= 0.30
     Davidson diagonalization with overlap
     ethr =  3.44E-04,  avg # of iterations =  2.0

     negative rho (up, down):  1.145E-03 0.000E+00

     add environment contribution to local potential
     polarization accuracy = 3.8E-14, # of iterations =  54

     total cpu time spent up to now is       37.7 secs

     total energy              =     -34.29499214 Ry
     Harris-Foulkes estimate   =     -34.15089552 Ry
     estimated scf accuracy    <       0.00083775 Ry
     electrostatic embedding   =      -0.03190022 Ry
     correction to one-el term =      -0.11236187 Ry

     iteration #  6     ecut=    30.00 Ry     beta= 0.30
     Davidson diagonalization with overlap
     ethr =  1.05E-05,  avg # of iterations =  2.0

     negative rho (up, down):  1.579E-03 0.000E+00

     add environment contribution to local potential
     polarization accuracy = 2.3E-14, # of iterations =  54

     total cpu time spent up to now is       44.6 secs

     total energy              =     -34.29522439 Ry
     Harris-Foulkes estimate   =     -34.15926592 Ry
     estimated scf accuracy    <       0.00019882 Ry
     electrostatic embedding   =      -0.03346356 Ry
     correction to one-el term =      -0.10249372 Ry

     iteration #  7     ecut=    30.00 Ry     beta= 0.30
     Davidson diagonalization with overlap
     ethr =  2.49E-06,  avg # of iterations =  2.0

     negative rho (up, down):  1.198E-03 0.000E+00

     add environment contribution to local potential
     polarization accuracy = 8.7E-14, # of iterations =  53

     total cpu time spent up to now is       51.6 secs

     total energy              =     -34.29531076 Ry
     Harris-Foulkes estimate   =     -34.18514791 Ry
     estimated scf accuracy    <       0.00000491 Ry
     electrostatic embedding   =      -0.03418759 Ry
     correction to one-el term =      -0.07597420 Ry

     iteration #  8     ecut=    30.00 Ry     beta= 0.30
     Davidson diagonalization with overlap
     ethr =  6.14E-08,  avg # of iterations =  2.0

     negative rho (up, down):  8.259E-04 0.000E+00

     add environment contribution to local potential
     polarization accuracy = 8.3E-14, # of iterations =  53

     total cpu time spent up to now is       58.4 secs

     total energy              =     -34.29531710 Ry
     Harris-Foulkes estimate   =     -34.18564152 Ry
     estimated scf accuracy    <       0.00000049 Ry
     electrostatic embedding   =      -0.03446351 Ry
     correction to one-el term =      -0.07521361 Ry

     iteration #  9     ecut=    30.00 Ry     beta= 0.30
     Davidson diagonalization with overlap
     ethr =  6.08E-09,  avg # of iterations =  2.0

     negative rho (up, down):  5.598E-04 0.000E+00

     add environment contribution to local potential
     polarization accuracy = 3.3E-14, # of iterations =  53

     total cpu time spent up to now is       65.5 secs

     total energy              =     -34.29531702 Ry
     Harris-Foulkes estimate   =     -34.18537142 Ry
     estimated scf accuracy    <       0.00000019 Ry
     electrostatic embedding   =      -0.03449421 Ry
     correction to one-el term =      -0.07545233 Ry

     iteration # 10     ecut=    30.00 Ry     beta= 0.30
     Davidson diagonalization with overlap
     ethr =  2.38E-09,  avg # of iterations =  3.0

     negative rho (up, down):  4.160E-04 0.000E+00

     add environment contribution to local potential
     polarization accuracy = 2.8E-14, # of iterations =  53

     total cpu time spent up to now is       72.3 secs

     total energy              =     -34.29531791 Ry
     Harris-Foulkes estimate   =     -34.18464612 Ry
     estimated scf accuracy    <       0.00000015 Ry
     electrostatic embedding   =      -0.03454571 Ry
     correction to one-el term =      -0.07612644 Ry

     iteration # 11     ecut=    30.00 Ry     beta= 0.30
     Davidson diagonalization with overlap
     ethr =  1.81E-09,  avg # of iterations =  2.0

     negative rho (up, down):  3.223E-04 0.000E+00

     add environment contribution to local potential
     polarization accuracy = 7.5E-14, # of iterations =  52

     total cpu time spent up to now is       79.2 secs

     total energy              =     -34.29531795 Ry
     Harris-Foulkes estimate   =     -34.18464399 Ry
     estimated scf accuracy    <       0.00000001 Ry
     electrostatic embedding   =      -0.03455939 Ry
     correction to one-el term =      -0.07611475 Ry

     iteration # 12     ecut=    30.00 Ry     beta= 0.30
     Davidson diagonalization with overlap
     ethr =  1.39E-10,  avg # of iterations =  2.0

     negative rho (up, down):  2.121E-04 0.000E+00

     the potential shift due to the Gaussian-smeared nuclei is    -0.0214 ev

     total cpu time spent up to now is       80.6 secs

     End of self-consistent calculation

          k = 0.0000 0.0000 0.0000 ( 11060 PWs)   bands (ev):

   -24.6097 -12.3746  -8.8138  -6.8492

     highest occupied level (ev):    -6.8492

!    total energy              =     -34.29531778 Ry
     Harris-Foulkes estimate   =     -34.18446556 Ry
     estimated scf accuracy    <          4.9E-10 Ry

     The total energy is the sum of the following terms:

     one-electron contribution =     -63.83413969 Ry
     hartree contribution      =      33.49652712 Ry
     xc contribution           =      -8.40421038 Ry
     ewald contribution        =       4.55735774 Ry
     electrostatic embedding   =      -0.03459206 Ry
     correction to one-el term =      -0.07626051 Ry

     convergence has been achieved in  12 iterations

     Forces acting on atoms (cartesian axes, Ry/au):

     atom    1 type  2   force =     0.00225077   -0.01212951   -0.00000000
     atom    2 type  1   force =    -0.00996459    0.00432085   -0.00000000
     atom    3 type  1   force =     0.00771383    0.00780866    0.00000000

     Total force =     0.019764     Total SCF correction =     0.000051

     Writing output data file pwscf.save/
 
     init_run     :      2.77s CPU      3.12s WALL (       1 calls)
     electrons    :     64.52s CPU     77.21s WALL (       1 calls)
     forces       :      0.37s CPU      0.43s WALL (       1 calls)

     Called by init_run:
     wfcinit      :      0.04s CPU      0.04s WALL (       1 calls)
     potinit      :      1.08s CPU      1.19s WALL (       1 calls)
     hinit0       :      1.41s CPU      1.47s WALL (       1 calls)

     Called by electrons:
     c_bands      :      0.81s CPU      0.85s WALL (      12 calls)
     sum_band     :      2.13s CPU      2.77s WALL (      12 calls)
     v_of_rho     :      5.27s CPU      5.78s WALL (      13 calls)
     newd         :      1.66s CPU      2.46s WALL (      13 calls)
     mix_rho      :      0.72s CPU      0.72s WALL (      12 calls)

     Called by c_bands:
     init_us_2    :      0.03s CPU      0.05s WALL (      25 calls)
     regterg      :      0.77s CPU      0.79s WALL (      12 calls)

     Called by sum_band:
     sum_band:bec :      0.00s CPU      0.00s WALL (      12 calls)
     addusdens    :      1.57s CPU      2.19s WALL (      12 calls)

     Called by *egterg:
     h_psi        :      0.77s CPU      0.77s WALL (      37 calls)
     s_psi        :      0.00s CPU      0.01s WALL (      37 calls)
     g_psi        :      0.01s CPU      0.01s WALL (      24 calls)
     rdiaghg      :      0.00s CPU      0.00s WALL (      36 calls)

     Called by h_psi:
     h_psi:pot    :      0.77s CPU      0.77s WALL (      37 calls)
     h_psi:calbec :      0.00s CPU      0.01s WALL (      37 calls)
     vloc_psi     :      0.76s CPU      0.75s WALL (      37 calls)
     add_vuspsi   :      0.00s CPU      0.01s WALL (      37 calls)

     General routines
     calbec       :      0.00s CPU      0.01s WALL (      53 calls)
     fft          :     26.72s CPU     26.99s WALL (    1484 calls)
     ffts         :      0.07s CPU      0.07s WALL (      25 calls)
     fftw         :      0.67s CPU      0.69s WALL (     168 calls)
     interpolate  :      0.36s CPU      0.40s WALL (      13 calls)
 
     Parallel routines
 
     Environ routines
     calc_eelect  :      0.03s CPU      0.03s WALL (      24 calls)
     calc_velect  :     45.28s CPU     54.95s WALL (      22 calls)
     dielectric   :      2.82s CPU      3.15s WALL (      14 calls)
     calc_felect  :      0.04s CPU      0.04s WALL (       1 calls)
 
     PWSCF        :   1m 7.96s CPU   1m21.08s WALL

 
   This run was terminated on:  12:57:23  24Apr2019            

=------------------------------------------------------------------------------=
   JOB DONE.
=------------------------------------------------------------------------------=

%%%% IONS %%%%%%%%%%%%%%%%%%%%%%%%%%%%%%%%%%%%%%%%%%%%%%%%%%%%%%%%%%%%%%%%%%%%%%
 number of ions             =          3
 ionic center of charge     =      0.5921875     0.5886250     0.5750000
 total ionic charge         =     -8.0000000
 ionic dipole               =      0.0000000     0.0000000     0.0000000
 ionic quadrupole (pc)      =     -4.2453875    -2.0049500     0.0000000
 ionic quadrupole (gauss)   =     -5.2453875    -3.0049500    -1.0000000
 ion   1 type =  2 coordinates =     11.7900000    12.0500000    11.5000000
 ion   2 type =  1 coordinates =     13.4500000    11.2200000    11.5000000
 ion   3 type =  1 coordinates =     10.5600000    10.6600000    11.5000000

%%%% SYSTEM %%%%%%%%%%%%%%%%%%%%%%%%%%%%%%%%%%%%%%%%%%%%%%%%%%%%%%%%%%%%%%%%%%%%
 system is built from all present ionic types
 system defined dimension   =  0 
 system defined axis        =  3 
 system center              =      0.5921875     0.5886250     0.5750000 
 system width               =      0.0849363 

%%%% ELECTRONS %%%%%%%%%%%%%%%%%%%%%%%%%%%%%%%%%%%%%%%%%%%%%%%%%%%%%%%%%%%%%%%%%
 number of electrons        =          8
 total electronic charge    =      8.0000000

%%%% BOUNDARY %%%%%%%%%%%%%%%%%%%%%%%%%%%%%%%%%%%%%%%%%%%%%%%%%%%%%%%%%%%%%%%%%%
 boundary label             = solvent              
 boundary mode              = electronic           
 boundary is built as a function of a smooth density
 function type              =  1 
 using the optimal SCCS function with parameters 
 rhomax                     =      0.0050000 
 rhomin                     =      0.0001000 
 volume of the QM region    =    479.9702285 
 surface of the QM region   =    281.4538971 

%%%% DIELECTRIC %%%%%%%%%%%%%%%%%%%%%%%%%%%%%%%%%%%%%%%%%%%%%%%%%%%%%%%%%%%%%%%%%
 dielectric build in the presence of dielectric regions
 environment bulk permitt.  =      1.0000000 
 number of dielec. regions  =    1 

%%%% FUNCTIONS %%%%%%%%%%%%%%%%%%%%%%%%%%%%%%%%%%%%%%%%%%%%%%%%%%%%%%%%%%%%%%%%%
 number of functions        =          1
 Scaled ERFC function, type = 4 
 number                     =   1 
 dimensionality             = 0 
 axis                       = 3 
 width                      =     6.000000 
 spread                     =     0.500000 
 max value                  =   100.000000 
 dielectric flags
 need gradient              =  F 
 need factor depend. sqrt   =  T 
 total dielectric charge    =      0.0000000

%%%% DENSITY %%%%%%%%%%%%%%%%%%%%%%%%%%%%%%%%%%%%%%%%%%%%%%%%%%%%%%%%%%%%%%%%%%%
 density label              = vreference                                                                      
 integral of density        =      0.000000000    

%%%% DENSITY %%%%%%%%%%%%%%%%%%%%%%%%%%%%%%%%%%%%%%%%%%%%%%%%%%%%%%%%%%%%%%%%%%%
 density label              = velectrostatic                                                                  
 integral of density        =      0.000000000    

%%%% CHARGES %%%%%%%%%%%%%%%%%%%%%%%%%%%%%%%%%%%%%%%%%%%%%%%%%%%%%%%%%%%%%%%%%%%
 total number of charges    =         11
 total charge               =     -0.0000000

%%%% DENSITY %%%%%%%%%%%%%%%%%%%%%%%%%%%%%%%%%%%%%%%%%%%%%%%%%%%%%%%%%%%%%%%%%%%
 density label              = vsoftcavity                                                                     
 integral of density        =      0.000000000    

%%%% ELECTRONS %%%%%%%%%%%%%%%%%%%%%%%%%%%%%%%%%%%%%%%%%%%%%%%%%%%%%%%%%%%%%%%%%
 number of electrons        =          8
 total electronic charge    =      8.0000000

%%%% BOUNDARY %%%%%%%%%%%%%%%%%%%%%%%%%%%%%%%%%%%%%%%%%%%%%%%%%%%%%%%%%%%%%%%%%%
 boundary label             = solvent              
 boundary mode              = electronic           
 boundary is built as a function of a smooth density
 function type              =  1 
 using the optimal SCCS function with parameters 
 rhomax                     =      0.0050000 
 rhomin                     =      0.0001000 
 volume of the QM region    =    344.7712290 
 surface of the QM region   =    229.9416849 

%%%% DIELECTRIC %%%%%%%%%%%%%%%%%%%%%%%%%%%%%%%%%%%%%%%%%%%%%%%%%%%%%%%%%%%%%%%%%
 dielectric build in the presence of dielectric regions
 environment bulk permitt.  =      1.0000000 
 number of dielec. regions  =    1 

%%%% FUNCTIONS %%%%%%%%%%%%%%%%%%%%%%%%%%%%%%%%%%%%%%%%%%%%%%%%%%%%%%%%%%%%%%%%%
 number of functions        =          1
 Scaled ERFC function, type = 4 
 number                     =   1 
 dimensionality             = 0 
 axis                       = 3 
 width                      =     6.000000 
 spread                     =     0.500000 
 max value                  =   100.000000 
 dielectric flags
 need gradient              =  F 
 need factor depend. sqrt   =  T 
 total dielectric charge    =      0.0000000

%%%% DENSITY %%%%%%%%%%%%%%%%%%%%%%%%%%%%%%%%%%%%%%%%%%%%%%%%%%%%%%%%%%%%%%%%%%%
 density label              = vreference                                                                      
 integral of density        =     0.5938295123E-12

%%%% COMPUTE ELECTROSTATIC POTENTIAL %%%%%%%%%%%%%%%%%%%%%%%%%%%%%%%%%%%%%%%%%%%
 Iteration #          1
  pAp =    29.3646562566598       rzold =    28.6223980070230       alpha = 
  0.974722733235860     
 delta_qm =   0.701647E-02 delta_en =   0.850709E+02 tol =   0.100000E-12
 Iteration #          2
  pAp =    30.0977372322330       rzold =    4.08725184628163       alpha = 
  0.135799306597189     
 delta_qm =   0.198438E-02 delta_en =   0.680445E+01 tol =   0.100000E-12
 Iteration #          3
  pAp =   0.806518730382571       rzold =   0.179166710458216       alpha = 
  0.222148232531721     
 delta_qm =   0.511433E-03 delta_en =   0.451982E+00 tol =   0.100000E-12
 Iteration #          4
  pAp =   4.261726391848201E-002  rzold =   7.447479639059111E-003  alpha = 
  0.174752646094423     
 delta_qm =   0.279239E-03 delta_en =   0.134740E+00 tol =   0.100000E-12
 Iteration #          5
  pAp =   4.876916809007843E-003  rzold =   1.409548734343587E-003  alpha = 
  0.289024559889990     
 delta_qm =   0.200367E-03 delta_en =   0.693741E-01 tol =   0.100000E-12
 Iteration #          6
  pAp =   1.017693604672635E-003  rzold =   4.068283280099759E-004  alpha = 
  0.399755217230477     
 delta_qm =   0.882188E-04 delta_en =   0.134483E-01 tol =   0.100000E-12
 Iteration #          7
  pAp =   2.135387439170663E-004  rzold =   7.348131884070324E-005  alpha = 
  0.344112349322621     
 delta_qm =   0.857480E-04 delta_en =   0.127055E-01 tol =   0.100000E-12
 Iteration #          8
  pAp =   7.246988780888569E-005  rzold =   2.577334513708314E-005  alpha = 
  0.355642128287151     
 delta_qm =   0.748367E-04 delta_en =   0.967772E-02 tol =   0.100000E-12
 Iteration #          9
  pAp =   1.161316967229783E-005  rzold =   2.003782655861780E-005  alpha = 
   1.72543992071486     
 delta_qm =   0.584404E-04 delta_en =   0.590160E-02 tol =   0.100000E-12
 Iteration #         10
  pAp =   1.898102669350822E-004  rzold =   4.459448797860777E-005  alpha = 
  0.234942443834504     
 delta_qm =   0.516504E-04 delta_en =   0.460989E-02 tol =   0.100000E-12
 Iteration #         11
  pAp =   5.894781221456607E-005  rzold =   2.131102001517449E-005  alpha = 
  0.361523510619933     
 delta_qm =   0.409839E-04 delta_en =   0.290249E-02 tol =   0.100000E-12
 Iteration #         12
  pAp =   2.419755352922081E-005  rzold =   8.214692017868274E-006  alpha = 
  0.339484403162835     
 delta_qm =   0.300792E-04 delta_en =   0.156342E-02 tol =   0.100000E-12
 Iteration #         13
  pAp =   4.878249950004276E-006  rzold =   2.870340297441683E-006  alpha = 
  0.588395495691886     
 delta_qm =   0.193753E-04 delta_en =   0.648693E-03 tol =   0.100000E-12
 Iteration #         14
  pAp =   5.543707380707903E-006  rzold =   2.498008000590401E-006  alpha = 
  0.450602427047911     
 delta_qm =   0.138272E-04 delta_en =   0.330380E-03 tol =   0.100000E-12
 Iteration #         15
  pAp =   1.398075847850192E-006  rzold =   9.225092411849505E-007  alpha = 
  0.659842055496119     
 delta_qm =   0.896933E-05 delta_en =   0.139016E-03 tol =   0.100000E-12
 Iteration #         16
  pAp =   2.661237517941304E-006  rzold =   8.357715741461295E-007  alpha = 
  0.314053731961764     
 delta_qm =   0.419727E-05 delta_en =   0.304423E-04 tol =   0.100000E-12
 Iteration #         17
  pAp =   7.243605546256663E-007  rzold =   2.452968469221009E-007  alpha = 
  0.338639156088317     
 delta_qm =   0.273271E-05 delta_en =   0.129042E-04 tol =   0.100000E-12
 Iteration #         18
  pAp =   9.327766782953673E-008  rzold =   3.995767626091210E-008  alpha = 
  0.428373448765186     
 delta_qm =   0.214470E-05 delta_en =   0.794835E-05 tol =   0.100000E-12
 Iteration #         19
  pAp =   5.429079005565137E-008  rzold =   1.485683922127963E-008  alpha = 
  0.273653030395219     
 delta_qm =   0.178494E-05 delta_en =   0.550544E-05 tol =   0.100000E-12
 Iteration #         20
  pAp =   1.957604909748589E-008  rzold =   1.297032302128385E-008  alpha = 
  0.662560813813529     
 delta_qm =   0.869987E-06 delta_en =   0.130789E-05 tol =   0.100000E-12
 Iteration #         21
  pAp =   1.123901568120191E-008  rzold =   5.585424731402989E-009  alpha = 
  0.496967429340367     
 delta_qm =   0.533891E-06 delta_en =   0.492548E-06 tol =   0.100000E-12
 Iteration #         22
  pAp =   4.964310811921232E-009  rzold =   2.010097993905746E-009  alpha = 
  0.404909779032917     
 delta_qm =   0.339511E-06 delta_en =   0.199183E-06 tol =   0.100000E-12
 Iteration #         23
  pAp =   6.052936987713801E-010  rzold =   3.517328330251502E-010  alpha = 
  0.581094489731339     
 delta_qm =   0.200635E-06 delta_en =   0.695596E-07 tol =   0.100000E-12
 Iteration #         24
  pAp =   1.628441036280806E-010  rzold =   1.263856017946560E-010  alpha = 
  0.776114080760995     
 delta_qm =   0.138147E-06 delta_en =   0.329779E-07 tol =   0.100000E-12
 Iteration #         25
  pAp =   7.810055853874457E-011  rzold =   5.289820750025634E-011  alpha = 
  0.677308952585970     
 delta_qm =   0.810932E-07 delta_en =   0.113635E-07 tol =   0.100000E-12
 Iteration #         26
  pAp =   6.543640722114432E-011  rzold =   3.299237819018795E-011  alpha = 
  0.504189939381745     
 delta_qm =   0.339558E-07 delta_en =   0.199238E-08 tol =   0.100000E-12
 Iteration #         27
  pAp =   1.676377488858146E-011  rzold =   5.145687297675594E-012  alpha = 
  0.306952779542545     
 delta_qm =   0.237413E-07 delta_en =   0.973990E-09 tol =   0.100000E-12
 Iteration #         28
  pAp =   3.535649005237749E-012  rzold =   1.743494430388544E-012  alpha = 
  0.493118640398329     
 delta_qm =   0.127709E-07 delta_en =   0.281829E-09 tol =   0.100000E-12
 Iteration #         29
  pAp =   1.389923368739173E-012  rzold =   6.238359329048378E-013  alpha = 
  0.448827573473156     
 delta_qm =   0.836009E-08 delta_en =   0.120772E-09 tol =   0.100000E-12
 Iteration #         30
  pAp =   3.568702835295470E-013  rzold =   2.384474780191531E-013  alpha = 
  0.668162884454376     
 delta_qm =   0.581253E-08 delta_en =   0.583814E-10 tol =   0.100000E-12
 Iteration #         31
  pAp =   2.504792304667969E-013  rzold =   1.319837107277093E-013  alpha = 
  0.526924769298207     
 delta_qm =   0.344993E-08 delta_en =   0.205667E-10 tol =   0.100000E-12
 Iteration #         32
  pAp =   6.624974801896302E-014  rzold =   3.546116555079230E-014  alpha = 
  0.535264912111697     
 delta_qm =   0.184451E-08 delta_en =   0.587901E-11 tol =   0.100000E-12
 Iteration #         33
  pAp =   2.046089837901337E-014  rzold =   9.117956403965121E-015  alpha = 
  0.445628350968077     
 delta_qm =   0.106240E-08 delta_en =   0.195040E-11 tol =   0.100000E-12
 Iteration #         34
  pAp =   9.430736236606687E-015  rzold =   3.468217608818365E-015  alpha = 
  0.367756824261080     
 delta_qm =   0.652510E-09 delta_en =   0.735730E-12 tol =   0.100000E-12
 Iteration #         35
  pAp =   4.621221642833963E-015  rzold =   1.719881690779753E-015  alpha = 
  0.372170353146065     
 delta_qm =   0.439884E-09 delta_en =   0.334365E-12 tol =   0.100000E-12
 Iteration #         36
  pAp =   3.777187087264129E-015  rzold =   9.193010233473238E-016  alpha = 
  0.243382443630344     
 delta_qm =   0.327505E-09 delta_en =   0.185345E-12 tol =   0.100000E-12
 Iteration #         37
  pAp =   8.701646618218900E-016  rzold =   4.282493342620424E-016  alpha = 
  0.492147467084453     
 delta_qm =   0.188334E-09 delta_en =   0.612919E-13 tol =   0.100000E-12
 Charges are converged, EXIT

%%%% DENSITY %%%%%%%%%%%%%%%%%%%%%%%%%%%%%%%%%%%%%%%%%%%%%%%%%%%%%%%%%%%%%%%%%%%
 density label              = velectrostatic                                                                  
 integral of density        =     0.3818509295E-12

%%%% CHARGES %%%%%%%%%%%%%%%%%%%%%%%%%%%%%%%%%%%%%%%%%%%%%%%%%%%%%%%%%%%%%%%%%%%
 total number of charges    =         11
 total charge               =     -0.0000000

%%%% DENSITY %%%%%%%%%%%%%%%%%%%%%%%%%%%%%%%%%%%%%%%%%%%%%%%%%%%%%%%%%%%%%%%%%%%
 density label              = vsoftcavity                                                                     
 integral of density        =      22.91952904    

%%%% ELECTRONS %%%%%%%%%%%%%%%%%%%%%%%%%%%%%%%%%%%%%%%%%%%%%%%%%%%%%%%%%%%%%%%%%
 number of electrons        =          8
 total electronic charge    =      8.0000000

%%%% BOUNDARY %%%%%%%%%%%%%%%%%%%%%%%%%%%%%%%%%%%%%%%%%%%%%%%%%%%%%%%%%%%%%%%%%%
 boundary label             = solvent              
 boundary mode              = electronic           
 boundary is built as a function of a smooth density
 function type              =  1 
 using the optimal SCCS function with parameters 
 rhomax                     =      0.0050000 
 rhomin                     =      0.0001000 
 volume of the QM region    =    246.9758397 
 surface of the QM region   =    188.5701411 

%%%% DIELECTRIC %%%%%%%%%%%%%%%%%%%%%%%%%%%%%%%%%%%%%%%%%%%%%%%%%%%%%%%%%%%%%%%%%
 dielectric build in the presence of dielectric regions
 environment bulk permitt.  =      1.0000000 
 number of dielec. regions  =    1 

%%%% FUNCTIONS %%%%%%%%%%%%%%%%%%%%%%%%%%%%%%%%%%%%%%%%%%%%%%%%%%%%%%%%%%%%%%%%%
 number of functions        =          1
 Scaled ERFC function, type = 4 
 number                     =   1 
 dimensionality             = 0 
 axis                       = 3 
 width                      =     6.000000 
 spread                     =     0.500000 
 max value                  =   100.000000 
 dielectric flags
 need gradient              =  F 
 need factor depend. sqrt   =  T 
 total dielectric charge    =      0.0339527

%%%% DENSITY %%%%%%%%%%%%%%%%%%%%%%%%%%%%%%%%%%%%%%%%%%%%%%%%%%%%%%%%%%%%%%%%%%%
 density label              = vreference                                                                      
 integral of density        =     0.2330974919E-12

%%%% COMPUTE ELECTROSTATIC POTENTIAL %%%%%%%%%%%%%%%%%%%%%%%%%%%%%%%%%%%%%%%%%%%
 Warning: bad guess with residual norm =   0.141252E+03, reset to no guess
 Iteration #          1
  pAp =    28.3928921752149       rzold =    27.8127937836937       alpha = 
  0.979568886891081     
 delta_qm =   0.889415E-02 delta_en =   0.136695E+03 tol =   0.100000E-12
 Iteration #          2
  pAp =    31.1774072321830       rzold =    3.70304923500302       alpha = 
  0.118773482587113     
 delta_qm =   0.237254E-02 delta_en =   0.972678E+01 tol =   0.100000E-12
 Iteration #          3
  pAp =   0.995391067145448       rzold =   0.190034377228303       alpha = 
  0.190914288364349     
 delta_qm =   0.599668E-03 delta_en =   0.621391E+00 tol =   0.100000E-12
 Iteration #          4
  pAp =   7.064982538438198E-002  rzold =   1.069145674353109E-002  alpha = 
  0.151330264234377     
 delta_qm =   0.440376E-03 delta_en =   0.335112E+00 tol =   0.100000E-12
 Iteration #          5
  pAp =   5.394436025452700E-003  rzold =   1.633636564840967E-003  alpha = 
  0.302837322962575     
 delta_qm =   0.254308E-03 delta_en =   0.111754E+00 tol =   0.100000E-12
 Iteration #          6
  pAp =   1.311131673446956E-003  rzold =   4.912735863909694E-004  alpha = 
  0.374694316627570     
 delta_qm =   0.181150E-03 delta_en =   0.567050E-01 tol =   0.100000E-12
 Iteration #          7
  pAp =   7.692360823869622E-004  rzold =   2.317289585037287E-004  alpha = 
  0.301245565320684     
 delta_qm =   0.184572E-03 delta_en =   0.588677E-01 tol =   0.100000E-12
 Iteration #          8
  pAp =   3.642700205187081E-005  rzold =   6.163300974229123E-005  alpha = 
   1.69195943312952     
 delta_qm =   0.162219E-03 delta_en =   0.454724E-01 tol =   0.100000E-12
 Iteration #          9
  pAp =   2.469120914049403E-004  rzold =   1.895306780939206E-004  alpha = 
  0.767603874785892     
 delta_qm =   0.132635E-03 delta_en =   0.303991E-01 tol =   0.100000E-12
 Iteration #         10
  pAp =   5.005325615881261E-004  rzold =   1.446728928531730E-004  alpha = 
  0.289037924713917     
 delta_qm =   0.107332E-03 delta_en =   0.199067E-01 tol =   0.100000E-12
 Iteration #         11
  pAp =   7.271866395040784E-005  rzold =   2.938470055861608E-005  alpha = 
  0.404087464789722     
 delta_qm =   0.813449E-04 delta_en =   0.114342E-01 tol =   0.100000E-12
 Iteration #         12
  pAp =   9.261438834329696E-005  rzold =   2.732519776775572E-005  alpha = 
  0.295042684582318     
 delta_qm =   0.645608E-04 delta_en =   0.720248E-02 tol =   0.100000E-12
 Iteration #         13
  pAp =   3.876303694056538E-005  rzold =   1.728750459892848E-005  alpha = 
  0.445979106988833     
 delta_qm =   0.598908E-04 delta_en =   0.619819E-02 tol =   0.100000E-12
 Iteration #         14
  pAp =   1.564867641033934E-005  rzold =   1.441075093908221E-005  alpha = 
  0.920892640451099     
 delta_qm =   0.602236E-04 delta_en =   0.626725E-02 tol =   0.100000E-12
 Iteration #         15
  pAp =   4.123265683552471E-005  rzold =   1.762476873360177E-005  alpha = 
  0.427446836712614     
 delta_qm =   0.521053E-04 delta_en =   0.469145E-02 tol =   0.100000E-12
 Iteration #         16
  pAp =   2.976007644837585E-005  rzold =   1.732085063434109E-005  alpha = 
  0.582016335354084     
 delta_qm =   0.395754E-04 delta_en =   0.270642E-02 tol =   0.100000E-12
 Iteration #         17
  pAp =   7.542460430687358E-006  rzold =   3.976513379346675E-006  alpha = 
  0.527217002447607     
 delta_qm =   0.370329E-04 delta_en =   0.236984E-02 tol =   0.100000E-12
 Iteration #         18
  pAp =   3.924166002070115E-006  rzold =   4.530599260340669E-006  alpha = 
   1.15453812554072     
 delta_qm =   0.401125E-04 delta_en =   0.278038E-02 tol =   0.100000E-12
 Iteration #         19
  pAp =   3.079145771909621E-005  rzold =   1.221695553121506E-005  alpha = 
  0.396764441705479     
 delta_qm =   0.405241E-04 delta_en =   0.283772E-02 tol =   0.100000E-12
 Iteration #         20
  pAp =   4.198661128842284E-005  rzold =   1.366496532745750E-005  alpha = 
  0.325460067105378     
 delta_qm =   0.332170E-04 delta_en =   0.190662E-02 tol =   0.100000E-12
 Iteration #         21
  pAp =   9.099009097484239E-006  rzold =   4.071313222322344E-006  alpha = 
  0.447445779941907     
 delta_qm =   0.230866E-04 delta_en =   0.921006E-03 tol =   0.100000E-12
 Iteration #         22
  pAp =   1.319143319146715E-006  rzold =   9.029472036417101E-007  alpha = 
  0.684495149644377     
 delta_qm =   0.142122E-04 delta_en =   0.349033E-03 tol =   0.100000E-12
 Iteration #         23
  pAp =   1.247243297125834E-006  rzold =   5.932828413642179E-007  alpha = 
  0.475675309485638     
 delta_qm =   0.104416E-04 delta_en =   0.188400E-03 tol =   0.100000E-12
 Iteration #         24
  pAp =   3.995998358050107E-007  rzold =   2.791626667583042E-007  alpha = 
  0.698605559223815     
 delta_qm =   0.745907E-05 delta_en =   0.961421E-04 tol =   0.100000E-12
 Iteration #         25
  pAp =   1.837730963924174E-007  rzold =   1.127998392717837E-007  alpha = 
  0.613799524990960     
 delta_qm =   0.371364E-05 delta_en =   0.238311E-04 tol =   0.100000E-12
 Iteration #         26
  pAp =   1.155143655578083E-007  rzold =   4.094068987297965E-008  alpha = 
  0.354420765549642     
 delta_qm =   0.209811E-05 delta_en =   0.760674E-05 tol =   0.100000E-12
 Iteration #         27
  pAp =   1.474087867515945E-008  rzold =   7.508630278951611E-009  alpha = 
  0.509374674632168     
 delta_qm =   0.103817E-05 delta_en =   0.186243E-05 tol =   0.100000E-12
 Iteration #         28
  pAp =   3.702316231521845E-009  rzold =   2.052646414263156E-009  alpha = 
  0.554422228114050     
 delta_qm =   0.455078E-06 delta_en =   0.357861E-06 tol =   0.100000E-12
 Iteration #         29
  pAp =   1.395813399408456E-009  rzold =   5.227841098110891E-010  alpha = 
  0.374537248340390     
 delta_qm =   0.292767E-06 delta_en =   0.148112E-06 tol =   0.100000E-12
 Iteration #         30
  pAp =   2.153472023082539E-009  rzold =   4.084504010414549E-010  alpha = 
  0.189670632663613     
 delta_qm =   0.212651E-06 delta_en =   0.781410E-07 tol =   0.100000E-12
 Iteration #         31
  pAp =   2.202649841565581E-010  rzold =   1.401390515900664E-010  alpha = 
  0.636229367671348     
 delta_qm =   0.173014E-06 delta_en =   0.517259E-07 tol =   0.100000E-12
 Iteration #         32
  pAp =   1.922725907999322E-010  rzold =   7.345770045373015E-011  alpha = 
  0.382049777080114     
 delta_qm =   0.156919E-06 delta_en =   0.425495E-07 tol =   0.100000E-12
 Iteration #         33
  pAp =   6.575096922465312E-011  rzold =   5.038397408298892E-011  alpha = 
  0.766284887920673     
 delta_qm =   0.919438E-07 delta_en =   0.146079E-07 tol =   0.100000E-12
 Iteration #         34
  pAp =   4.762840190261543E-011  rzold =   2.200874465670610E-011  alpha = 
  0.462092864289396     
 delta_qm =   0.589134E-07 delta_en =   0.599753E-08 tol =   0.100000E-12
 Iteration #         35
  pAp =   1.606588246341823E-011  rzold =   8.346706717512450E-012  alpha = 
  0.519529925388025     
 delta_qm =   0.346667E-07 delta_en =   0.207667E-08 tol =   0.100000E-12
 Iteration #         36
  pAp =   5.549913931107713E-012  rzold =   2.705062157046605E-012  alpha = 
  0.487406145505161     
 delta_qm =   0.238614E-07 delta_en =   0.983863E-09 tol =   0.100000E-12
 Iteration #         37
  pAp =   6.758715366864659E-012  rzold =   1.509072076985165E-012  alpha = 
  0.223277944856734     
 delta_qm =   0.184968E-07 delta_en =   0.591205E-09 tol =   0.100000E-12
 Iteration #         38
  pAp =   1.681382609406948E-012  rzold =   8.232332926902641E-013  alpha = 
  0.489616871308448     
 delta_qm =   0.607002E-08 delta_en =   0.636684E-10 tol =   0.100000E-12
 Iteration #         39
  pAp =   2.884287982525701E-013  rzold =   1.426899117422402E-013  alpha = 
  0.494714510502138     
 delta_qm =   0.308610E-08 delta_en =   0.164575E-10 tol =   0.100000E-12
 Iteration #         40
  pAp =   1.183888293153653E-013  rzold =   3.298640451798103E-014  alpha = 
  0.278627677195046     
 delta_qm =   0.227254E-08 delta_en =   0.892413E-11 tol =   0.100000E-12
 Iteration #         41
  pAp =   1.576732108685503E-014  rzold =   9.464661886120065E-015  alpha = 
  0.600270764702737     
 delta_qm =   0.122446E-08 delta_en =   0.259081E-11 tol =   0.100000E-12
 Iteration #         42
  pAp =   6.750631856237025E-015  rzold =   4.237647738647863E-015  alpha = 
  0.627740903206361     
 delta_qm =   0.937636E-09 delta_en =   0.151919E-11 tol =   0.100000E-12
 Iteration #         43
  pAp =   3.376156474886038E-015  rzold =   2.366741635394078E-015  alpha = 
  0.701016571062207     
 delta_qm =   0.716558E-09 delta_en =   0.887250E-12 tol =   0.100000E-12
 Iteration #         44
  pAp =   7.321843032949598E-015  rzold =   1.812833057336044E-015  alpha = 
  0.247592450313121     
 delta_qm =   0.753966E-09 delta_en =   0.982308E-12 tol =   0.100000E-12
 Iteration #         45
  pAp =   2.558278256387747E-015  rzold =   1.289715805435144E-015  alpha = 
  0.504134295092749     
 delta_qm =   0.522268E-09 delta_en =   0.471337E-12 tol =   0.100000E-12
 Iteration #         46
  pAp =   1.793334283676566E-015  rzold =   9.368110371596536E-016  alpha = 
  0.522385059878000     
 delta_qm =   0.514597E-09 delta_en =   0.457591E-12 tol =   0.100000E-12
 Iteration #         47
  pAp =   6.684586694982114E-016  rzold =   6.280074024196465E-016  alpha = 
  0.939485761911159     
 delta_qm =   0.481903E-09 delta_en =   0.401295E-12 tol =   0.100000E-12
 Iteration #         48
  pAp =   5.200543230523585E-016  rzold =   4.108728997954544E-016  alpha = 
  0.790057656638474     
 delta_qm =   0.321722E-09 delta_en =   0.178856E-12 tol =   0.100000E-12
 Iteration #         49
  pAp =   4.338259816138999E-016  rzold =   1.770450072933321E-016  alpha = 
  0.408101438818158     
 delta_qm =   0.219420E-09 delta_en =   0.831948E-13 tol =   0.100000E-12
 Charges are converged, EXIT

%%%% DENSITY %%%%%%%%%%%%%%%%%%%%%%%%%%%%%%%%%%%%%%%%%%%%%%%%%%%%%%%%%%%%%%%%%%%
 density label              = velectrostatic                                                                  
 integral of density        =     0.3070465692E-12

%%%% CHARGES %%%%%%%%%%%%%%%%%%%%%%%%%%%%%%%%%%%%%%%%%%%%%%%%%%%%%%%%%%%%%%%%%%%
 total number of charges    =         11
 total charge               =     -0.0000000

%%%% DENSITY %%%%%%%%%%%%%%%%%%%%%%%%%%%%%%%%%%%%%%%%%%%%%%%%%%%%%%%%%%%%%%%%%%%
 density label              = vsoftcavity                                                                     
 integral of density        =      16.16746735    

%%%% ELECTRONS %%%%%%%%%%%%%%%%%%%%%%%%%%%%%%%%%%%%%%%%%%%%%%%%%%%%%%%%%%%%%%%%%
 number of electrons        =          8
 total electronic charge    =      8.0000000

%%%% BOUNDARY %%%%%%%%%%%%%%%%%%%%%%%%%%%%%%%%%%%%%%%%%%%%%%%%%%%%%%%%%%%%%%%%%%
 boundary label             = solvent              
 boundary mode              = electronic           
 boundary is built as a function of a smooth density
 function type              =  1 
 using the optimal SCCS function with parameters 
 rhomax                     =      0.0050000 
 rhomin                     =      0.0001000 
 volume of the QM region    =    239.6288729 
 surface of the QM region   =    185.5528929 

%%%% DIELECTRIC %%%%%%%%%%%%%%%%%%%%%%%%%%%%%%%%%%%%%%%%%%%%%%%%%%%%%%%%%%%%%%%%%
 dielectric build in the presence of dielectric regions
 environment bulk permitt.  =      1.0000000 
 number of dielec. regions  =    1 

%%%% FUNCTIONS %%%%%%%%%%%%%%%%%%%%%%%%%%%%%%%%%%%%%%%%%%%%%%%%%%%%%%%%%%%%%%%%%
 number of functions        =          1
 Scaled ERFC function, type = 4 
 number                     =   1 
 dimensionality             = 0 
 axis                       = 3 
 width                      =     6.000000 
 spread                     =     0.500000 
 max value                  =   100.000000 
 dielectric flags
 need gradient              =  F 
 need factor depend. sqrt   =  T 
 total dielectric charge    =      0.0137417

%%%% DENSITY %%%%%%%%%%%%%%%%%%%%%%%%%%%%%%%%%%%%%%%%%%%%%%%%%%%%%%%%%%%%%%%%%%%
 density label              = vreference                                                                      
 integral of density        =    -0.5822502974E-13

%%%% COMPUTE ELECTROSTATIC POTENTIAL %%%%%%%%%%%%%%%%%%%%%%%%%%%%%%%%%%%%%%%%%%%
 Warning: bad guess with residual norm =   0.204503E+03, reset to no guess
 Iteration #          1
  pAp =    29.3137798436835       rzold =    28.8746307262179       alpha = 
  0.985019021094945     
 delta_qm =   0.107328E-01 delta_en =   0.199054E+03 tol =   0.100000E-12
 Iteration #          2
  pAp =    25.6279609334533       rzold =    2.92689032095532       alpha = 
  0.114206913634503     
 delta_qm =   0.258053E-02 delta_en =   0.115070E+02 tol =   0.100000E-12
 Iteration #          3
  pAp =    1.07691593475955       rzold =   0.177584182163531       alpha = 
  0.164900691346146     
 delta_qm =   0.742899E-03 delta_en =   0.953681E+00 tol =   0.100000E-12
 Iteration #          4
  pAp =   0.114431389763897       rzold =   1.554765535467743E-002  alpha = 
  0.135868797772678     
 delta_qm =   0.519288E-03 delta_en =   0.465972E+00 tol =   0.100000E-12
 Iteration #          5
  pAp =   5.055461492228783E-003  rzold =   1.474411264290597E-003  alpha = 
  0.291647214909470     
 delta_qm =   0.318127E-03 delta_en =   0.174882E+00 tol =   0.100000E-12
 Iteration #          6
  pAp =   1.324129662997202E-003  rzold =   5.267252305301072E-004  alpha = 
  0.397789767308627     
 delta_qm =   0.247359E-03 delta_en =   0.105731E+00 tol =   0.100000E-12
 Iteration #          7
  pAp =   7.765600462660560E-004  rzold =   2.488197274812489E-004  alpha = 
  0.320412733925280     
 delta_qm =   0.270257E-03 delta_en =   0.126212E+00 tol =   0.100000E-12
 Iteration #          8
  pAp =   4.704693030031067E-005  rzold =   8.900074947526209E-005  alpha = 
   1.89174402893348     
 delta_qm =   0.239014E-03 delta_en =   0.987166E-01 tol =   0.100000E-12
 Iteration #          9
  pAp =   4.808615064284966E-004  rzold =   3.309133403272827E-004  alpha = 
  0.688167665540700     
 delta_qm =   0.219451E-03 delta_en =   0.832181E-01 tol =   0.100000E-12
 Iteration #         10
  pAp =   7.104032606636438E-004  rzold =   1.985236934456946E-004  alpha = 
  0.279452114648570     
 delta_qm =   0.188552E-03 delta_en =   0.614334E-01 tol =   0.100000E-12
 Iteration #         11
  pAp =   2.205731713831926E-004  rzold =   6.455187641152229E-005  alpha = 
  0.292655158407180     
 delta_qm =   0.152305E-03 delta_en =   0.400842E-01 tol =   0.100000E-12
 Iteration #         12
  pAp =   1.547959439204689E-004  rzold =   5.258817258743380E-005  alpha = 
  0.339725778696453     
 delta_qm =   0.114280E-03 delta_en =   0.225675E-01 tol =   0.100000E-12
 Iteration #         13
  pAp =   4.970614513675980E-005  rzold =   3.007939275698895E-005  alpha = 
  0.605144347328273     
 delta_qm =   0.997301E-04 delta_en =   0.171869E-01 tol =   0.100000E-12
 Iteration #         14
  pAp =   5.824802946000557E-005  rzold =   3.521415578672952E-005  alpha = 
  0.604555314800964     
 delta_qm =   0.110638E-03 delta_en =   0.211520E-01 tol =   0.100000E-12
 Iteration #         15
  pAp =   5.657477293550173E-005  rzold =   3.170939209706017E-005  alpha = 
  0.560486422688971     
 delta_qm =   0.807946E-04 delta_en =   0.112800E-01 tol =   0.100000E-12
 Iteration #         16
  pAp =   7.961615505778534E-005  rzold =   3.454466112949562E-005  alpha = 
  0.433890095602119     
 delta_qm =   0.656060E-04 delta_en =   0.743757E-02 tol =   0.100000E-12
 Iteration #         17
  pAp =   2.970681913526599E-005  rzold =   1.096832500952874E-005  alpha = 
  0.369219099479683     
 delta_qm =   0.643642E-04 delta_en =   0.715866E-02 tol =   0.100000E-12
 Iteration #         18
  pAp =   5.426599173116845E-006  rzold =   6.265990140077472E-006  alpha = 
   1.15468084894107     
 delta_qm =   0.634584E-04 delta_en =   0.695861E-02 tol =   0.100000E-12
 Iteration #         19
  pAp =   7.869125186596374E-005  rzold =   2.928386308627231E-005  alpha = 
  0.372136195471284     
 delta_qm =   0.819129E-04 delta_en =   0.115944E-01 tol =   0.100000E-12
 Iteration #         20
  pAp =   4.597254570474208E-005  rzold =   2.775305404831029E-005  alpha = 
  0.603687562280188     
 delta_qm =   0.827392E-04 delta_en =   0.118295E-01 tol =   0.100000E-12
 Iteration #         21
  pAp =   3.360394543150051E-005  rzold =   1.738821435925284E-005  alpha = 
  0.517445619434706     
 delta_qm =   0.681490E-04 delta_en =   0.802532E-02 tol =   0.100000E-12
 Iteration #         22
  pAp =   7.741456877026259E-006  rzold =   5.848014117160394E-006  alpha = 
  0.755415189938616     
 delta_qm =   0.406553E-04 delta_en =   0.285612E-02 tol =   0.100000E-12
 Iteration #         23
  pAp =   4.440855506994030E-006  rzold =   3.309529597345926E-006  alpha = 
  0.745245953653222     
 delta_qm =   0.339305E-04 delta_en =   0.198941E-02 tol =   0.100000E-12
 Iteration #         24
  pAp =   3.837985825976724E-006  rzold =   2.104091983004710E-006  alpha = 
  0.548228179677876     
 delta_qm =   0.238338E-04 delta_en =   0.981587E-03 tol =   0.100000E-12
 Iteration #         25
  pAp =   2.966369225212145E-006  rzold =   1.323320620244623E-006  alpha = 
  0.446107857712819     
 delta_qm =   0.144074E-04 delta_en =   0.358684E-03 tol =   0.100000E-12
 Iteration #         26
  pAp =   7.788372293475946E-007  rzold =   2.797198121318444E-007  alpha = 
  0.359150540821163     
 delta_qm =   0.881883E-05 delta_en =   0.134390E-03 tol =   0.100000E-12
 Iteration #         27
  pAp =   1.048088698281967E-006  rzold =   1.844430154587160E-007  alpha = 
  0.175980349526768     
 delta_qm =   0.696902E-05 delta_en =   0.839241E-04 tol =   0.100000E-12
 Iteration #         28
  pAp =   2.256986511938374E-007  rzold =   7.275880834839184E-008  alpha = 
  0.322371480571695     
 delta_qm =   0.385407E-05 delta_en =   0.256675E-04 tol =   0.100000E-12
 Iteration #         29
  pAp =   3.710913100277087E-008  rzold =   1.848111586051160E-008  alpha = 
  0.498020712452998     
 delta_qm =   0.191569E-05 delta_en =   0.634151E-05 tol =   0.100000E-12
 Iteration #         30
  pAp =   9.825346819453644E-009  rzold =   5.030674577736528E-009  alpha = 
  0.512009873053648     
 delta_qm =   0.917682E-06 delta_en =   0.145522E-05 tol =   0.100000E-12
 Iteration #         31
  pAp =   2.835242697678514E-009  rzold =   1.575630418300534E-009  alpha = 
  0.555730350558932     
 delta_qm =   0.579774E-06 delta_en =   0.580845E-06 tol =   0.100000E-12
 Iteration #         32
  pAp =   9.839252511401122E-010  rzold =   5.234761984984968E-010  alpha = 
  0.532028421764687     
 delta_qm =   0.461984E-06 delta_en =   0.368806E-06 tol =   0.100000E-12
 Iteration #         33
  pAp =   1.186974178307133E-009  rzold =   4.868219879665565E-010  alpha = 
  0.410136965793867     
 delta_qm =   0.349067E-06 delta_en =   0.210552E-06 tol =   0.100000E-12
 Iteration #         34
  pAp =   2.114357477358029E-010  rzold =   1.526671238256483E-010  alpha = 
  0.722049726503258     
 delta_qm =   0.191766E-06 delta_en =   0.635460E-07 tol =   0.100000E-12
 Iteration #         35
  pAp =   3.752325148716712E-010  rzold =   1.106487404025842E-010  alpha = 
  0.294880470154421     
 delta_qm =   0.163089E-06 delta_en =   0.459614E-07 tol =   0.100000E-12
 Iteration #         36
  pAp =   3.134309291306260E-010  rzold =   8.483425409948367E-011  alpha = 
  0.270663314353792     
 delta_qm =   0.143549E-06 delta_en =   0.356075E-07 tol =   0.100000E-12
 Iteration #         37
  pAp =   4.559533356284370E-011  rzold =   2.841524712048941E-011  alpha = 
  0.623205159390377     
 delta_qm =   0.105775E-06 delta_en =   0.193333E-07 tol =   0.100000E-12
 Iteration #         38
  pAp =   1.752394744319105E-011  rzold =   1.413930978079806E-011  alpha = 
  0.806856436121754     
 delta_qm =   0.415104E-07 delta_en =   0.297754E-08 tol =   0.100000E-12
 Iteration #         39
  pAp =   1.114746661250890E-011  rzold =   4.410639588437601E-012  alpha = 
  0.395662955696884     
 delta_qm =   0.270523E-07 delta_en =   0.126460E-08 tol =   0.100000E-12
 Iteration #         40
  pAp =   4.738081300479265E-012  rzold =   1.397384279696524E-012  alpha = 
  0.294926192920154     
 delta_qm =   0.187159E-07 delta_en =   0.605295E-09 tol =   0.100000E-12
 Iteration #         41
  pAp =   6.657063129674408E-013  rzold =   3.091582086307730E-013  alpha = 
  0.464406304414742     
 delta_qm =   0.908212E-08 delta_en =   0.142534E-09 tol =   0.100000E-12
 Iteration #         42
  pAp =   7.511331875182917E-013  rzold =   1.646511346584606E-013  alpha = 
  0.219203647761138     
 delta_qm =   0.674851E-08 delta_en =   0.786973E-10 tol =   0.100000E-12
 Iteration #         43
  pAp =   2.429080270252501E-013  rzold =   8.593644958283963E-014  alpha = 
  0.353781843421365     
 delta_qm =   0.381811E-08 delta_en =   0.251907E-10 tol =   0.100000E-12
 Iteration #         44
  pAp =   5.841171053939205E-014  rzold =   3.233306378043389E-014  alpha = 
  0.553537355469652     
 delta_qm =   0.354672E-08 delta_en =   0.217369E-10 tol =   0.100000E-12
 Iteration #         45
  pAp =   2.264257424644597E-014  rzold =   1.747274072182516E-014  alpha = 
  0.771676423875157     
 delta_qm =   0.338655E-08 delta_en =   0.198179E-10 tol =   0.100000E-12
 Iteration #         46
  pAp =   1.589755641253474E-014  rzold =   1.461988985984492E-014  alpha = 
  0.919631261589207     
 delta_qm =   0.311316E-08 delta_en =   0.167474E-10 tol =   0.100000E-12
 Iteration #         47
  pAp =   2.725534071339942E-014  rzold =   1.839026779321946E-014  alpha = 
  0.674739970657506     
 delta_qm =   0.278582E-08 delta_en =   0.134107E-10 tol =   0.100000E-12
 Iteration #         48
  pAp =   3.542092332798830E-014  rzold =   1.653154573183778E-014  alpha = 
  0.466716962140147     
 delta_qm =   0.237350E-08 delta_en =   0.973470E-11 tol =   0.100000E-12
 Iteration #         49
  pAp =   9.239286218230472E-014  rzold =   1.640283638829424E-014  alpha = 
  0.177533588643775     
 delta_qm =   0.187845E-08 delta_en =   0.609738E-11 tol =   0.100000E-12
 Iteration #         50
  pAp =   1.739531603798325E-014  rzold =   6.382428256511825E-015  alpha = 
  0.366904989974059     
 delta_qm =   0.133180E-08 delta_en =   0.306496E-11 tol =   0.100000E-12
 Iteration #         51
  pAp =   5.374559521630899E-015  rzold =   1.918244949064751E-015  alpha = 
  0.356912029970907     
 delta_qm =   0.920052E-09 delta_en =   0.146275E-11 tol =   0.100000E-12
 Iteration #         52
  pAp =   8.132060169904847E-015  rzold =   2.208477374199496E-015  alpha = 
  0.271576615034482     
 delta_qm =   0.554909E-09 delta_en =   0.532093E-12 tol =   0.100000E-12
 Iteration #         53
  pAp =   4.659886899037894E-016  rzold =   3.410181342112229E-016  alpha = 
  0.731816332884885     
 delta_qm =   0.272074E-09 delta_en =   0.127914E-12 tol =   0.100000E-12
 Iteration #         54
  pAp =   2.976804313436154E-016  rzold =   1.205490202645250E-016  alpha = 
  0.404961185121954     
 delta_qm =   0.197643E-09 delta_en =   0.675007E-13 tol =   0.100000E-12
 Charges are converged, EXIT

%%%% DENSITY %%%%%%%%%%%%%%%%%%%%%%%%%%%%%%%%%%%%%%%%%%%%%%%%%%%%%%%%%%%%%%%%%%%
 density label              = velectrostatic                                                                  
 integral of density        =    -0.2258604826E-12

%%%% CHARGES %%%%%%%%%%%%%%%%%%%%%%%%%%%%%%%%%%%%%%%%%%%%%%%%%%%%%%%%%%%%%%%%%%%
 total number of charges    =         11
 total charge               =     -0.0000000

%%%% DENSITY %%%%%%%%%%%%%%%%%%%%%%%%%%%%%%%%%%%%%%%%%%%%%%%%%%%%%%%%%%%%%%%%%%%
 density label              = vsoftcavity                                                                     
 integral of density        =      11.62890588    

%%%% ELECTRONS %%%%%%%%%%%%%%%%%%%%%%%%%%%%%%%%%%%%%%%%%%%%%%%%%%%%%%%%%%%%%%%%%
 number of electrons        =          8
 total electronic charge    =      8.0000000

%%%% BOUNDARY %%%%%%%%%%%%%%%%%%%%%%%%%%%%%%%%%%%%%%%%%%%%%%%%%%%%%%%%%%%%%%%%%%
 boundary label             = solvent              
 boundary mode              = electronic           
 boundary is built as a function of a smooth density
 function type              =  1 
 using the optimal SCCS function with parameters 
 rhomax                     =      0.0050000 
 rhomin                     =      0.0001000 
 volume of the QM region    =    227.2649233 
 surface of the QM region   =    179.3413127 

%%%% DIELECTRIC %%%%%%%%%%%%%%%%%%%%%%%%%%%%%%%%%%%%%%%%%%%%%%%%%%%%%%%%%%%%%%%%%
 dielectric build in the presence of dielectric regions
 environment bulk permitt.  =      1.0000000 
 number of dielec. regions  =    1 

%%%% FUNCTIONS %%%%%%%%%%%%%%%%%%%%%%%%%%%%%%%%%%%%%%%%%%%%%%%%%%%%%%%%%%%%%%%%%
 number of functions        =          1
 Scaled ERFC function, type = 4 
 number                     =   1 
 dimensionality             = 0 
 axis                       = 3 
 width                      =     6.000000 
 spread                     =     0.500000 
 max value                  =   100.000000 
 dielectric flags
 need gradient              =  F 
 need factor depend. sqrt   =  T 
 total dielectric charge    =      0.0003270

%%%% DENSITY %%%%%%%%%%%%%%%%%%%%%%%%%%%%%%%%%%%%%%%%%%%%%%%%%%%%%%%%%%%%%%%%%%%
 density label              = vreference                                                                      
 integral of density        =     0.1803331147E-12

%%%% COMPUTE ELECTROSTATIC POTENTIAL %%%%%%%%%%%%%%%%%%%%%%%%%%%%%%%%%%%%%%%%%%%
 Warning: bad guess with residual norm =   0.256390E+03, reset to no guess
 Iteration #          1
  pAp =    28.9239430019523       rzold =    28.4729353542236       alpha = 
  0.984407117394116     
 delta_qm =   0.120072E-01 delta_en =   0.249132E+03 tol =   0.100000E-12
 Iteration #          2
  pAp =    26.5112607761570       rzold =    3.02155357224364       alpha = 
  0.113972458637693     
 delta_qm =   0.276497E-02 delta_en =   0.132107E+02 tol =   0.100000E-12
 Iteration #          3
  pAp =    1.32457347457103       rzold =   0.196524407138646       alpha = 
  0.148368067843342     
 delta_qm =   0.875454E-03 delta_en =   0.132437E+01 tol =   0.100000E-12
 Iteration #          4
  pAp =   0.164818079574335       rzold =   2.111842596520705E-002  alpha = 
  0.128131731784209     
 delta_qm =   0.560086E-03 delta_en =   0.542068E+00 tol =   0.100000E-12
 Iteration #          5
  pAp =   5.620211230945006E-003  rzold =   1.613492235348554E-003  alpha = 
  0.287087472169129     
 delta_qm =   0.352466E-03 delta_en =   0.214673E+00 tol =   0.100000E-12
 Iteration #          6
  pAp =   1.454068245103887E-003  rzold =   6.043289333198651E-004  alpha = 
  0.415612496424945     
 delta_qm =   0.281956E-03 delta_en =   0.137374E+00 tol =   0.100000E-12
 Iteration #          7
  pAp =   8.386312750272599E-004  rzold =   2.642737243207535E-004  alpha = 
  0.315125052201473     
 delta_qm =   0.305522E-03 delta_en =   0.161298E+00 tol =   0.100000E-12
 Iteration #          8
  pAp =   6.252737288479840E-005  rzold =   1.065252786052474E-004  alpha = 
   1.70365831300016     
 delta_qm =   0.276115E-03 delta_en =   0.131742E+00 tol =   0.100000E-12
 Iteration #          9
  pAp =   5.353712762825643E-004  rzold =   3.831697768197295E-004  alpha = 
  0.715708506964232     
 delta_qm =   0.246005E-03 delta_en =   0.104575E+00 tol =   0.100000E-12
 Iteration #         10
  pAp =   9.708748153528365E-004  rzold =   2.458760608376597E-004  alpha = 
  0.253252074262842     
 delta_qm =   0.219340E-03 delta_en =   0.831338E-01 tol =   0.100000E-12
 Iteration #         11
  pAp =   4.574729205610001E-004  rzold =   1.108421063638487E-004  alpha = 
  0.242292169398623     
 delta_qm =   0.186485E-03 delta_en =   0.600940E-01 tol =   0.100000E-12
 Iteration #         12
  pAp =   1.326857818843253E-004  rzold =   5.506196067524970E-005  alpha = 
  0.414980112362396     
 delta_qm =   0.148761E-03 delta_en =   0.382404E-01 tol =   0.100000E-12
 Iteration #         13
  pAp =   6.174178620124150E-005  rzold =   4.023671341516039E-005  alpha = 
  0.651693381270387     
 delta_qm =   0.122973E-03 delta_en =   0.261314E-01 tol =   0.100000E-12
 Iteration #         14
  pAp =   8.918723856199599E-005  rzold =   4.832405810427312E-005  alpha = 
  0.541827047046445     
 delta_qm =   0.139599E-03 delta_en =   0.336752E-01 tol =   0.100000E-12
 Iteration #         15
  pAp =   6.238550772828283E-005  rzold =   4.050092087495897E-005  alpha = 
  0.649203995443282     
 delta_qm =   0.102814E-03 delta_en =   0.182664E-01 tol =   0.100000E-12
 Iteration #         16
  pAp =   1.270787011208400E-004  rzold =   5.116466051768318E-005  alpha = 
  0.402621840374575     
 delta_qm =   0.875900E-04 delta_en =   0.132572E-01 tol =   0.100000E-12
 Iteration #         17
  pAp =   3.923762425644230E-005  rzold =   1.505939707590367E-005  alpha = 
  0.383799920644561     
 delta_qm =   0.837031E-04 delta_en =   0.121067E-01 tol =   0.100000E-12
 Iteration #         18
  pAp =   2.210483503029373E-005  rzold =   1.281750742231505E-005  alpha = 
  0.579850851849797     
 delta_qm =   0.800237E-04 delta_en =   0.110658E-01 tol =   0.100000E-12
 Iteration #         19
  pAp =   6.746940617243585E-005  rzold =   3.262933664751523E-005  alpha = 
  0.483616775344404     
 delta_qm =   0.101583E-03 delta_en =   0.178314E-01 tol =   0.100000E-12
 Iteration #         20
  pAp =   3.847707812047103E-005  rzold =   3.247052944989295E-005  alpha = 
  0.843892806731018     
 delta_qm =   0.969913E-04 delta_en =   0.162558E-01 tol =   0.100000E-12
 Iteration #         21
  pAp =   4.299319304213760E-005  rzold =   2.175056726155733E-005  alpha = 
  0.505907231413113     
 delta_qm =   0.870706E-04 delta_en =   0.131005E-01 tol =   0.100000E-12
 Iteration #         22
  pAp =   1.712099746254544E-005  rzold =   9.802512714077112E-006  alpha = 
  0.572543319133215     
 delta_qm =   0.575145E-04 delta_en =   0.571609E-02 tol =   0.100000E-12
 Iteration #         23
  pAp =   7.891055757735620E-006  rzold =   5.236870719433584E-006  alpha = 
  0.663646396656096     
 delta_qm =   0.393221E-04 delta_en =   0.267189E-02 tol =   0.100000E-12
 Iteration #         24
  pAp =   8.390940823746310E-006  rzold =   3.895473105736066E-006  alpha = 
  0.464247476839772     
 delta_qm =   0.297923E-04 delta_en =   0.153374E-02 tol =   0.100000E-12
 Iteration #         25
  pAp =   4.665614191073862E-006  rzold =   2.250417925757764E-006  alpha = 
  0.482341195305691     
 delta_qm =   0.187348E-04 delta_en =   0.606514E-03 tol =   0.100000E-12
 Iteration #         26
  pAp =   2.436285771560661E-006  rzold =   6.093540071103087E-007  alpha = 
  0.250115981558256     
 delta_qm =   0.163236E-04 delta_en =   0.460443E-03 tol =   0.100000E-12
 Iteration #         27
  pAp =   2.833948836119983E-006  rzold =   6.224345239972471E-007  alpha = 
  0.219635060472522     
 delta_qm =   0.997662E-05 delta_en =   0.171993E-03 tol =   0.100000E-12
 Iteration #         28
  pAp =   2.074641248657320E-007  rzold =   9.973732551072578E-008  alpha = 
  0.480744926744682     
 delta_qm =   0.586851E-05 delta_en =   0.595112E-04 tol =   0.100000E-12
 Iteration #         29
  pAp =   8.292962724544974E-008  rzold =   3.821136331335722E-008  alpha = 
  0.460768540539338     
 delta_qm =   0.291309E-05 delta_en =   0.146640E-04 tol =   0.100000E-12
 Iteration #         30
  pAp =   1.679971626903347E-008  rzold =   9.173361922898737E-009  alpha = 
  0.546042669768643     
 delta_qm =   0.110498E-05 delta_en =   0.210986E-05 tol =   0.100000E-12
 Iteration #         31
  pAp =   2.893734641283728E-009  rzold =   1.689376037197724E-009  alpha = 
  0.583804752894784     
 delta_qm =   0.620328E-06 delta_en =   0.664947E-06 tol =   0.100000E-12
 Iteration #         32
  pAp =   1.277734854653488E-009  rzold =   7.533468223122511E-010  alpha = 
  0.589595579684295     
 delta_qm =   0.485418E-06 delta_en =   0.407169E-06 tol =   0.100000E-12
 Iteration #         33
  pAp =   6.284154138594975E-010  rzold =   3.044710709988075E-010  alpha = 
  0.484506051703693     
 delta_qm =   0.384277E-06 delta_en =   0.255171E-06 tol =   0.100000E-12
 Iteration #         34
  pAp =   7.370662490727500E-010  rzold =   2.699548097151984E-010  alpha = 
  0.366255828502267     
 delta_qm =   0.249398E-06 delta_en =   0.107480E-06 tol =   0.100000E-12
 Iteration #         35
  pAp =   6.899686541962318E-010  rzold =   1.801103379800624E-010  alpha = 
  0.261041334102169     
 delta_qm =   0.190304E-06 delta_en =   0.625806E-07 tol =   0.100000E-12
 Iteration #         36
  pAp =   2.958198731475175E-010  rzold =   1.139514018135801E-010  alpha = 
  0.385205363659782     
 delta_qm =   0.168658E-06 delta_en =   0.491541E-07 tol =   0.100000E-12
 Iteration #         37
  pAp =   5.345408605952983E-011  rzold =   3.278137060806582E-011  alpha = 
  0.613262203595782     
 delta_qm =   0.142043E-06 delta_en =   0.348644E-07 tol =   0.100000E-12
 Iteration #         38
  pAp =   3.608170143372053E-011  rzold =   2.840344434323633E-011  alpha = 
  0.787198031539932     
 delta_qm =   0.822685E-07 delta_en =   0.116953E-07 tol =   0.100000E-12
 Iteration #         39
  pAp =   2.347378957806269E-011  rzold =   1.347648773821398E-011  alpha = 
  0.574107887156336     
 delta_qm =   0.632361E-07 delta_en =   0.690993E-08 tol =   0.100000E-12
 Iteration #         40
  pAp =   2.195456087827937E-011  rzold =   5.438103663423867E-012  alpha = 
  0.247698129494543     
 delta_qm =   0.464072E-07 delta_en =   0.372147E-08 tol =   0.100000E-12
 Iteration #         41
  pAp =   1.072621564710348E-011  rzold =   4.843996641579610E-012  alpha = 
  0.451603510590214     
 delta_qm =   0.423577E-07 delta_en =   0.310033E-08 tol =   0.100000E-12
 Iteration #         42
  pAp =   4.001423772050187E-012  rzold =   3.059250800541849E-012  alpha = 
  0.764540567262737     
 delta_qm =   0.456188E-07 delta_en =   0.359609E-08 tol =   0.100000E-12
 Iteration #         43
  pAp =   7.549385588081641E-012  rzold =   4.535476047724877E-012  alpha = 
  0.600774194774886     
 delta_qm =   0.556799E-07 delta_en =   0.535724E-08 tol =   0.100000E-12
 Iteration #         44
  pAp =   4.775759341500356E-012  rzold =   2.758437237390099E-012  alpha = 
  0.577591339961345     
 delta_qm =   0.414194E-07 delta_en =   0.296449E-08 tol =   0.100000E-12
 Iteration #         45
  pAp =   3.377168839439520E-012  rzold =   1.474677772910999E-012  alpha = 
  0.436660955676631     
 delta_qm =   0.250665E-07 delta_en =   0.108575E-08 tol =   0.100000E-12
 Iteration #         46
  pAp =   2.008731349087143E-012  rzold =   7.357523857716572E-013  alpha = 
  0.366277146073324     
 delta_qm =   0.135067E-07 delta_en =   0.315242E-09 tol =   0.100000E-12
 Iteration #         47
  pAp =   7.121688608956404E-013  rzold =   2.317130727780928E-013  alpha = 
  0.325362544617136     
 delta_qm =   0.851385E-08 delta_en =   0.125255E-09 tol =   0.100000E-12
 Iteration #         48
  pAp =   1.369816727979387E-012  rzold =   2.292154860947124E-013  alpha = 
  0.167332958791376     
 delta_qm =   0.480553E-08 delta_en =   0.399048E-10 tol =   0.100000E-12
 Iteration #         49
  pAp =   1.272741232311734E-013  rzold =   3.791840051021789E-014  alpha = 
  0.297927021986591     
 delta_qm =   0.301653E-08 delta_en =   0.157239E-10 tol =   0.100000E-12
 Iteration #         50
  pAp =   1.170217081034586E-013  rzold =   2.329809507658202E-014  alpha = 
  0.199092078334596     
 delta_qm =   0.186205E-08 delta_en =   0.599136E-11 tol =   0.100000E-12
 Iteration #         51
  pAp =   1.368070894119649E-014  rzold =   5.104848419009465E-015  alpha = 
  0.373142096725508     
 delta_qm =   0.953564E-09 delta_en =   0.157124E-11 tol =   0.100000E-12
 Iteration #         52
  pAp =   2.548193424529246E-015  rzold =   1.230039803871352E-015  alpha = 
  0.482710532109073     
 delta_qm =   0.596458E-09 delta_en =   0.614757E-12 tol =   0.100000E-12
 Iteration #         53
  pAp =   6.061376961899036E-016  rzold =   4.583925847481254E-016  alpha = 
  0.756251570607663     
 delta_qm =   0.426363E-09 delta_en =   0.314126E-12 tol =   0.100000E-12
 Iteration #         54
  pAp =   1.457366318694891E-016  rzold =   1.304989324025105E-016  alpha = 
  0.895443587027424     
 delta_qm =   0.188798E-09 delta_en =   0.615939E-13 tol =   0.100000E-12
 Charges are converged, EXIT

%%%% DENSITY %%%%%%%%%%%%%%%%%%%%%%%%%%%%%%%%%%%%%%%%%%%%%%%%%%%%%%%%%%%%%%%%%%%
 density label              = velectrostatic                                                                  
 integral of density        =     0.3829035854E-13

%%%% CHARGES %%%%%%%%%%%%%%%%%%%%%%%%%%%%%%%%%%%%%%%%%%%%%%%%%%%%%%%%%%%%%%%%%%%
 total number of charges    =         11
 total charge               =     -0.0000000

%%%% DENSITY %%%%%%%%%%%%%%%%%%%%%%%%%%%%%%%%%%%%%%%%%%%%%%%%%%%%%%%%%%%%%%%%%%%
 density label              = vsoftcavity                                                                     
 integral of density        =      11.47524168    

%%%% ELECTRONS %%%%%%%%%%%%%%%%%%%%%%%%%%%%%%%%%%%%%%%%%%%%%%%%%%%%%%%%%%%%%%%%%
 number of electrons        =          8
 total electronic charge    =      8.0000000

%%%% BOUNDARY %%%%%%%%%%%%%%%%%%%%%%%%%%%%%%%%%%%%%%%%%%%%%%%%%%%%%%%%%%%%%%%%%%
 boundary label             = solvent              
 boundary mode              = electronic           
 boundary is built as a function of a smooth density
 function type              =  1 
 using the optimal SCCS function with parameters 
 rhomax                     =      0.0050000 
 rhomin                     =      0.0001000 
 volume of the QM region    =    230.4486821 
 surface of the QM region   =    180.9455631 

%%%% DIELECTRIC %%%%%%%%%%%%%%%%%%%%%%%%%%%%%%%%%%%%%%%%%%%%%%%%%%%%%%%%%%%%%%%%%
 dielectric build in the presence of dielectric regions
 environment bulk permitt.  =      1.0000000 
 number of dielec. regions  =    1 

%%%% FUNCTIONS %%%%%%%%%%%%%%%%%%%%%%%%%%%%%%%%%%%%%%%%%%%%%%%%%%%%%%%%%%%%%%%%%
 number of functions        =          1
 Scaled ERFC function, type = 4 
 number                     =   1 
 dimensionality             = 0 
 axis                       = 3 
 width                      =     6.000000 
 spread                     =     0.500000 
 max value                  =   100.000000 
 dielectric flags
 need gradient              =  F 
 need factor depend. sqrt   =  T 
 total dielectric charge    =      0.0001144

%%%% DENSITY %%%%%%%%%%%%%%%%%%%%%%%%%%%%%%%%%%%%%%%%%%%%%%%%%%%%%%%%%%%%%%%%%%%
 density label              = vreference                                                                      
 integral of density        =    -0.2028994257E-12

%%%% COMPUTE ELECTROSTATIC POTENTIAL %%%%%%%%%%%%%%%%%%%%%%%%%%%%%%%%%%%%%%%%%%%
 Warning: bad guess with residual norm =   0.240216E+03, reset to no guess
 Iteration #          1
  pAp =    28.9145539355984       rzold =    28.4498508142558       alpha = 
  0.983928400819267     
 delta_qm =   0.116187E-01 delta_en =   0.233271E+03 tol =   0.100000E-12
 Iteration #          2
  pAp =    26.5021313053139       rzold =    3.06290855642202       alpha = 
  0.115572159881643     
 delta_qm =   0.269164E-02 delta_en =   0.125192E+02 tol =   0.100000E-12
 Iteration #          3
  pAp =    1.30964048360514       rzold =   0.197780775140219       alpha = 
  0.151019136637998     
 delta_qm =   0.846075E-03 delta_en =   0.123698E+01 tol =   0.100000E-12
 Iteration #          4
  pAp =   0.166839659588450       rzold =   2.119636673297286E-002  alpha = 
  0.127046331701100     
 delta_qm =   0.551871E-03 delta_en =   0.526283E+00 tol =   0.100000E-12
 Iteration #          5
  pAp =   6.029504393618437E-003  rzold =   1.715763801107860E-003  alpha = 
  0.284561331927016     
 delta_qm =   0.350454E-03 delta_en =   0.212230E+00 tol =   0.100000E-12
 Iteration #          6
  pAp =   1.513297033896526E-003  rzold =   6.295186115977295E-004  alpha = 
  0.415991439550244     
 delta_qm =   0.279025E-03 delta_en =   0.134533E+00 tol =   0.100000E-12
 Iteration #          7
  pAp =   9.023704192375853E-004  rzold =   2.871667655402375E-004  alpha = 
  0.318236014189013     
 delta_qm =   0.305274E-03 delta_en =   0.161037E+00 tol =   0.100000E-12
 Iteration #          8
  pAp =   6.681791685077116E-005  rzold =   1.140816739082341E-004  alpha = 
   1.70735155007930     
 delta_qm =   0.274301E-03 delta_en =   0.130016E+00 tol =   0.100000E-12
 Iteration #          9
  pAp =   5.790701800794978E-004  rzold =   4.212217524050052E-004  alpha = 
  0.727410540026733     
 delta_qm =   0.242859E-03 delta_en =   0.101918E+00 tol =   0.100000E-12
 Iteration #         10
  pAp =   1.050903508028544E-003  rzold =   2.536599678700892E-004  alpha = 
  0.241373224023151     
 delta_qm =   0.215721E-03 delta_en =   0.804133E-01 tol =   0.100000E-12
 Iteration #         11
  pAp =   4.251922038117517E-004  rzold =   1.078029445263069E-004  alpha = 
  0.253539325415372     
 delta_qm =   0.180649E-03 delta_en =   0.563916E-01 tol =   0.100000E-12
 Iteration #         12
  pAp =   1.401377718602601E-004  rzold =   6.027487325739554E-005  alpha = 
  0.430111542785904     
 delta_qm =   0.141653E-03 delta_en =   0.346734E-01 tol =   0.100000E-12
 Iteration #         13
  pAp =   6.767546465689165E-005  rzold =   4.269764153840466E-005  alpha = 
  0.630917597018030     
 delta_qm =   0.122485E-03 delta_en =   0.259243E-01 tol =   0.100000E-12
 Iteration #         14
  pAp =   8.910613015003450E-005  rzold =   5.066292885154396E-005  alpha = 
  0.568568388799279     
 delta_qm =   0.134897E-03 delta_en =   0.314445E-01 tol =   0.100000E-12
 Iteration #         15
  pAp =   7.144542649130517E-005  rzold =   4.400395176036515E-005  alpha = 
  0.615909987824348     
 delta_qm =   0.101700E-03 delta_en =   0.178726E-01 tol =   0.100000E-12
 Iteration #         16
  pAp =   1.279011994288793E-004  rzold =   5.269855510814368E-005  alpha = 
  0.412025495800352     
 delta_qm =   0.881113E-04 delta_en =   0.134155E-01 tol =   0.100000E-12
 Iteration #         17
  pAp =   3.713269480062713E-005  rzold =   1.533435769345085E-005  alpha = 
  0.412961078526191     
 delta_qm =   0.839159E-04 delta_en =   0.121684E-01 tol =   0.100000E-12
 Iteration #         18
  pAp =   8.863967219772090E-006  rzold =   1.173246741326178E-005  alpha = 
   1.32361358321488     
 delta_qm =   0.899439E-04 delta_en =   0.139793E-01 tol =   0.100000E-12
 Iteration #         19
  pAp =   1.003993773123547E-004  rzold =   3.845804077509622E-005  alpha = 
  0.383050590597276     
 delta_qm =   0.102322E-03 delta_en =   0.180920E-01 tol =   0.100000E-12
 Iteration #         20
  pAp =   1.268211396061250E-004  rzold =   5.538095622173296E-005  alpha = 
  0.436685527300358     
 delta_qm =   0.951697E-04 delta_en =   0.156510E-01 tol =   0.100000E-12
 Iteration #         21
  pAp =   4.425792291813909E-005  rzold =   2.198929363647176E-005  alpha = 
  0.496844230063482     
 delta_qm =   0.843645E-04 delta_en =   0.122988E-01 tol =   0.100000E-12
 Iteration #         22
  pAp =   1.652015406180051E-005  rzold =   1.005054718390365E-005  alpha = 
  0.608380959784358     
 delta_qm =   0.559665E-04 delta_en =   0.541253E-02 tol =   0.100000E-12
 Iteration #         23
  pAp =   8.820401825506542E-006  rzold =   5.955813162803129E-006  alpha = 
  0.675231500857513     
 delta_qm =   0.403862E-04 delta_en =   0.281844E-02 tol =   0.100000E-12
 Iteration #         24
  pAp =   9.285846827779628E-006  rzold =   4.241450843391937E-006  alpha = 
  0.456765109532409     
 delta_qm =   0.306886E-04 delta_en =   0.162742E-02 tol =   0.100000E-12
 Iteration #         25
  pAp =   4.978653544506267E-006  rzold =   2.445916689414133E-006  alpha = 
  0.491280758451871     
 delta_qm =   0.187190E-04 delta_en =   0.605495E-03 tol =   0.100000E-12
 Iteration #         26
  pAp =   8.470506904179489E-007  rzold =   4.440805057893450E-007  alpha = 
  0.524266742017799     
 delta_qm =   0.109638E-04 delta_en =   0.207716E-03 tol =   0.100000E-12
 Iteration #         27
  pAp =   3.241899808555071E-007  rzold =   1.452621364317336E-007  alpha = 
  0.448077192417854     
 delta_qm =   0.615438E-05 delta_en =   0.654503E-04 tol =   0.100000E-12
 Iteration #         28
  pAp =   2.041667361017555E-007  rzold =   5.847507126895270E-008  alpha = 
  0.286408414933023     
 delta_qm =   0.438634E-05 delta_en =   0.332466E-04 tol =   0.100000E-12
 Iteration #         29
  pAp =   3.217536594454153E-007  rzold =   5.799890149624949E-008  alpha = 
  0.180258715926396     
 delta_qm =   0.261933E-05 delta_en =   0.118556E-04 tol =   0.100000E-12
 Iteration #         30
  pAp =   1.673143530407884E-008  rzold =   9.062079979722312E-009  alpha = 
  0.541619999421874     
 delta_qm =   0.108625E-05 delta_en =   0.203892E-05 tol =   0.100000E-12
 Iteration #         31
  pAp =   2.976129198481881E-009  rzold =   1.764794719280746E-009  alpha = 
  0.592983234794029     
 delta_qm =   0.635907E-06 delta_en =   0.698764E-06 tol =   0.100000E-12
 Iteration #         32
  pAp =   1.348416747104390E-009  rzold =   7.713780050654021E-010  alpha = 
  0.572062017712158     
 delta_qm =   0.475092E-06 delta_en =   0.390030E-06 tol =   0.100000E-12
 Iteration #         33
  pAp =   3.666308625342226E-010  rzold =   2.423721410580526E-010  alpha = 
  0.661079483005686     
 delta_qm =   0.292034E-06 delta_en =   0.147370E-06 tol =   0.100000E-12
 Iteration #         34
  pAp =   4.238230204315107E-010  rzold =   1.730629253388767E-010  alpha = 
  0.408337718802237     
 delta_qm =   0.181152E-06 delta_en =   0.567063E-07 tol =   0.100000E-12
 Iteration #         35
  pAp =   2.035863703398227E-010  rzold =   9.050137946693870E-011  alpha = 
  0.444535551745804     
 delta_qm =   0.146539E-06 delta_en =   0.371063E-07 tol =   0.100000E-12
 Iteration #         36
  pAp =   1.613212337282030E-010  rzold =   4.758718224921972E-011  alpha = 
  0.294983996523331     
 delta_qm =   0.137207E-06 delta_en =   0.325307E-07 tol =   0.100000E-12
 Iteration #         37
  pAp =   1.167070874647074E-010  rzold =   3.669455081734442E-011  alpha = 
  0.314415787545388     
 delta_qm =   0.124273E-06 delta_en =   0.266867E-07 tol =   0.100000E-12
 Iteration #         38
  pAp =   3.351949020365364E-011  rzold =   2.635723642175737E-011  alpha = 
  0.786325694741158     
 delta_qm =   0.688169E-07 delta_en =   0.818340E-08 tol =   0.100000E-12
 Iteration #         39
  pAp =   1.583002044179957E-011  rzold =   9.382032127181414E-012  alpha = 
  0.592673405677223     
 delta_qm =   0.457986E-07 delta_en =   0.362449E-08 tol =   0.100000E-12
 Iteration #         40
  pAp =   3.682694822757092E-012  rzold =   2.309219847595835E-012  alpha = 
  0.627046214453092     
 delta_qm =   0.367565E-07 delta_en =   0.233460E-08 tol =   0.100000E-12
 Iteration #         41
  pAp =   8.642736781528986E-012  rzold =   2.518517384822176E-012  alpha = 
  0.291402763787124     
 delta_qm =   0.254349E-07 delta_en =   0.111790E-08 tol =   0.100000E-12
 Iteration #         42
  pAp =   4.917485531607801E-012  rzold =   2.816343392300480E-012  alpha = 
  0.572720219347480     
 delta_qm =   0.401744E-07 delta_en =   0.278897E-08 tol =   0.100000E-12
 Iteration #         43
  pAp =   4.770515878790941E-012  rzold =   2.523931803779253E-012  alpha = 
  0.529068945142874     
 delta_qm =   0.448373E-07 delta_en =   0.347394E-08 tol =   0.100000E-12
 Iteration #         44
  pAp =   4.048903498151602E-012  rzold =   2.096600556831835E-012  alpha = 
  0.517819344864349     
 delta_qm =   0.346553E-07 delta_en =   0.207531E-08 tol =   0.100000E-12
 Iteration #         45
  pAp =   2.355061626438874E-012  rzold =   1.162065665909675E-012  alpha = 
  0.493433230308649     
 delta_qm =   0.196099E-07 delta_en =   0.664501E-09 tol =   0.100000E-12
 Iteration #         46
  pAp =   1.210477211560867E-012  rzold =   5.000738445002647E-013  alpha = 
  0.413121238239122     
[...]
 delta_qm =   0.261446E-06 delta_en =   0.118115E-06 tol =   0.100000E-12
 Iteration #         34
  pAp =   3.149319085436819E-010  rzold =   1.424054092021857E-010  alpha = 
  0.452178408535043     
 delta_qm =   0.153578E-06 delta_en =   0.407569E-07 tol =   0.100000E-12
 Iteration #         35
  pAp =   4.238035579124696E-010  rzold =   9.502574860767231E-011  alpha = 
  0.224221214837697     
 delta_qm =   0.135065E-06 delta_en =   0.315230E-07 tol =   0.100000E-12
 Iteration #         36
  pAp =   1.400009791632818E-010  rzold =   5.087935050685912E-011  alpha = 
  0.363421390414127     
 delta_qm =   0.123976E-06 delta_en =   0.265593E-07 tol =   0.100000E-12
 Iteration #         37
  pAp =   1.270569096938561E-011  rzold =   1.621797545909519E-011  alpha = 
   1.27643396161393     
 delta_qm =   0.721008E-07 delta_en =   0.898304E-08 tol =   0.100000E-12
 Iteration #         38
  pAp =   2.349544221241880E-011  rzold =   1.293286917784346E-011  alpha = 
  0.550441615906579     
 delta_qm =   0.415616E-07 delta_en =   0.298489E-08 tol =   0.100000E-12
 Iteration #         39
  pAp =   1.459824898589698E-011  rzold =   4.028472565820378E-012  alpha = 
  0.275955874551269     
 delta_qm =   0.303911E-07 delta_en =   0.159602E-08 tol =   0.100000E-12
 Iteration #         40
  pAp =   3.260926943376389E-012  rzold =   1.158993996724703E-012  alpha = 
  0.355418571728157     
 delta_qm =   0.217670E-07 delta_en =   0.818729E-09 tol =   0.100000E-12
 Iteration #         41
  pAp =   3.459674413005002E-012  rzold =   7.140871285073931E-013  alpha = 
  0.206402985732739     
 delta_qm =   0.140230E-07 delta_en =   0.339802E-09 tol =   0.100000E-12
 Iteration #         42
  pAp =   5.217080810250389E-013  rzold =   3.191856586330337E-013  alpha = 
  0.611808921966295     
 delta_qm =   0.100477E-07 delta_en =   0.174454E-09 tol =   0.100000E-12
 Iteration #         43
  pAp =   2.456567321189034E-013  rzold =   1.869806577110621E-013  alpha = 
  0.761146076064218     
 delta_qm =   0.130888E-07 delta_en =   0.296037E-09 tol =   0.100000E-12
 Iteration #         44
  pAp =   2.008468627829813E-013  rzold =   1.769305378758706E-013  alpha = 
  0.880922586612902     
 delta_qm =   0.132328E-07 delta_en =   0.302587E-09 tol =   0.100000E-12
 Iteration #         45
  pAp =   3.111897006519688E-013  rzold =   2.206778720299966E-013  alpha = 
  0.709142595553959     
 delta_qm =   0.996776E-08 delta_en =   0.171688E-09 tol =   0.100000E-12
 Iteration #         46
  pAp =   2.788417500308431E-013  rzold =   1.553845963313263E-013  alpha = 
  0.557250111628330     
 delta_qm =   0.640629E-08 delta_en =   0.709182E-10 tol =   0.100000E-12
 Iteration #         47
  pAp =   1.989912715779775E-013  rzold =   7.001469992395465E-014  alpha = 
  0.351848095490552     
 delta_qm =   0.410660E-08 delta_en =   0.291413E-10 tol =   0.100000E-12
 Iteration #         48
  pAp =   9.738356586238589E-014  rzold =   2.897535836836833E-014  alpha = 
  0.297538482101937     
 delta_qm =   0.244221E-08 delta_en =   0.103064E-10 tol =   0.100000E-12
 Iteration #         49
  pAp =   1.132247733795689E-013  rzold =   1.599660709443366E-014  alpha = 
  0.141281864533369     
 delta_qm =   0.167400E-08 delta_en =   0.484233E-11 tol =   0.100000E-12
 Iteration #         50
  pAp =   8.545679109357723E-015  rzold =   3.662307116301418E-015  alpha = 
  0.428556592101745     
 delta_qm =   0.706065E-09 delta_en =   0.861456E-12 tol =   0.100000E-12
 Iteration #         51
  pAp =   6.080689484379005E-016  rzold =   4.316831875972612E-016  alpha = 
  0.709924735848187     
 delta_qm =   0.315728E-09 delta_en =   0.172255E-12 tol =   0.100000E-12
 Iteration #         52
  pAp =   1.338667113782664E-015  rzold =   2.282272667565925E-016  alpha = 
  0.170488439139804     
 delta_qm =   0.262833E-09 delta_en =   0.119372E-12 tol =   0.100000E-12
 Iteration #         53
  pAp =   1.464476967689271E-016  rzold =   7.699921633836270E-017  alpha = 
  0.525779633529205     
 delta_qm =   0.127724E-09 delta_en =   0.281895E-13 tol =   0.100000E-12
 Charges are converged, EXIT

%%%% DENSITY %%%%%%%%%%%%%%%%%%%%%%%%%%%%%%%%%%%%%%%%%%%%%%%%%%%%%%%%%%%%%%%%%%%
 density label              = velectrostatic                                                                  
 integral of density        =    -0.1219107120E-12

%%%% CHARGES %%%%%%%%%%%%%%%%%%%%%%%%%%%%%%%%%%%%%%%%%%%%%%%%%%%%%%%%%%%%%%%%%%%
 total number of charges    =         11
 total charge               =     -0.0000000

%%%% DENSITY %%%%%%%%%%%%%%%%%%%%%%%%%%%%%%%%%%%%%%%%%%%%%%%%%%%%%%%%%%%%%%%%%%%
 density label              = vsoftcavity                                                                     
 integral of density        =      12.36653808    

%%%% ELECTRONS %%%%%%%%%%%%%%%%%%%%%%%%%%%%%%%%%%%%%%%%%%%%%%%%%%%%%%%%%%%%%%%%%
 number of electrons        =          8
 total electronic charge    =      8.0000000

%%%% BOUNDARY %%%%%%%%%%%%%%%%%%%%%%%%%%%%%%%%%%%%%%%%%%%%%%%%%%%%%%%%%%%%%%%%%%
 boundary label             = solvent              
 boundary mode              = electronic           
 boundary is built as a function of a smooth density
 function type              =  1 
 using the optimal SCCS function with parameters 
 rhomax                     =      0.0050000 
 rhomin                     =      0.0001000 
 volume of the QM region    =    230.8545130 
 surface of the QM region   =    181.1262843 

%%%% DIELECTRIC %%%%%%%%%%%%%%%%%%%%%%%%%%%%%%%%%%%%%%%%%%%%%%%%%%%%%%%%%%%%%%%%%
 dielectric build in the presence of dielectric regions
 environment bulk permitt.  =      1.0000000 
 number of dielec. regions  =    1 

%%%% FUNCTIONS %%%%%%%%%%%%%%%%%%%%%%%%%%%%%%%%%%%%%%%%%%%%%%%%%%%%%%%%%%%%%%%%%
 number of functions        =          1
 Scaled ERFC function, type = 4 
 number                     =   1 
 dimensionality             = 0 
 axis                       = 3 
 width                      =     6.000000 
 spread                     =     0.500000 
 max value                  =   100.000000 
 dielectric flags
 need gradient              =  F 
 need factor depend. sqrt   =  T 
 total dielectric charge    =     -0.0001033

%%%% DENSITY %%%%%%%%%%%%%%%%%%%%%%%%%%%%%%%%%%%%%%%%%%%%%%%%%%%%%%%%%%%%%%%%%%%
 density label              = vreference                                                                      
 integral of density        =     0.1942150144E-12

%%%% COMPUTE ELECTROSTATIC POTENTIAL %%%%%%%%%%%%%%%%%%%%%%%%%%%%%%%%%%%%%%%%%%%
 Warning: bad guess with residual norm =   0.235171E+03, reset to no guess
 Iteration #          1
  pAp =    28.9135400421264       rzold =    28.4422006540986       alpha = 
  0.983698316175015     
 delta_qm =   0.114942E-01 delta_en =   0.228300E+03 tol =   0.100000E-12
 Iteration #          2
  pAp =    26.3837437091591       rzold =    3.07609689877204       alpha = 
  0.116590614761929     
 delta_qm =   0.267541E-02 delta_en =   0.123687E+02 tol =   0.100000E-12
 Iteration #          3
  pAp =    1.32366692204241       rzold =   0.199650639412777       alpha = 
  0.150831478892528     
 delta_qm =   0.843658E-03 delta_en =   0.122992E+01 tol =   0.100000E-12
 Iteration #          4
  pAp =   0.174712337256948       rzold =   2.183748136175639E-002  alpha = 
  0.124991066484562     
 delta_qm =   0.557257E-03 delta_en =   0.536605E+00 tol =   0.100000E-12
 Iteration #          5
  pAp =   6.492926017303903E-003  rzold =   1.810989182679693E-003  alpha = 
  0.278917267477457     
 delta_qm =   0.358440E-03 delta_en =   0.222012E+00 tol =   0.100000E-12
 Iteration #          6
  pAp =   1.547925612603306E-003  rzold =   6.503683078452775E-004  alpha = 
  0.420154755855151     
 delta_qm =   0.280647E-03 delta_en =   0.136102E+00 tol =   0.100000E-12
 Iteration #          7
  pAp =   9.497628468601801E-004  rzold =   3.041725693544582E-004  alpha = 
  0.320261600419538     
 delta_qm =   0.308136E-03 delta_en =   0.164070E+00 tol =   0.100000E-12
 Iteration #          8
  pAp =   7.292871496980915E-005  rzold =   1.205884715976913E-004  alpha = 
   1.65351153722662     
 delta_qm =   0.276983E-03 delta_en =   0.132571E+00 tol =   0.100000E-12
 Iteration #          9
  pAp =   6.011232344895884E-004  rzold =   4.509595606217885E-004  alpha = 
  0.750194859802245     
 delta_qm =   0.245559E-03 delta_en =   0.104197E+00 tol =   0.100000E-12
 Iteration #         10
  pAp =   1.199657531111666E-003  rzold =   2.652877749414582E-004  alpha = 
  0.221136256024358     
 delta_qm =   0.220381E-03 delta_en =   0.839249E-01 tol =   0.100000E-12
 Iteration #         11
  pAp =   3.984249024030936E-004  rzold =   1.064785308703054E-004  alpha = 
  0.267248684075925     
 delta_qm =   0.182911E-03 delta_en =   0.578127E-01 tol =   0.100000E-12
 Iteration #         12
  pAp =   1.354099593648786E-004  rzold =   6.486760460721755E-005  alpha = 
  0.479046038500196     
 delta_qm =   0.141078E-03 delta_en =   0.343925E-01 tol =   0.100000E-12
 Iteration #         13
  pAp =   8.620138031419197E-005  rzold =   4.963161408328750E-005  alpha = 
  0.575763565529777     
 delta_qm =   0.130536E-03 delta_en =   0.294445E-01 tol =   0.100000E-12
 Iteration #         14
  pAp =   8.457597480613459E-005  rzold =   5.260328887924427E-005  alpha = 
  0.621964913792856     
 delta_qm =   0.136160E-03 delta_en =   0.320363E-01 tol =   0.100000E-12
 Iteration #         15
  pAp =   9.225548174730068E-005  rzold =   5.303723943456919E-005  alpha = 
  0.574895262916136     
 delta_qm =   0.104596E-03 delta_en =   0.189048E-01 tol =   0.100000E-12
 Iteration #         16
  pAp =   1.359511094322516E-004  rzold =   5.541262501504529E-005  alpha = 
  0.407592297307872     
 delta_qm =   0.933192E-04 delta_en =   0.150482E-01 tol =   0.100000E-12
 Iteration #         17
  pAp =   3.833840426054098E-005  rzold =   1.663105179783026E-005  alpha = 
  0.433796140413372     
 delta_qm =   0.880599E-04 delta_en =   0.133998E-01 tol =   0.100000E-12
 Iteration #         18
  pAp =   9.165289913401684E-006  rzold =   1.347249168132699E-005  alpha = 
   1.46994713845628     
 delta_qm =   0.967478E-04 delta_en =   0.161743E-01 tol =   0.100000E-12
 Iteration #         19
  pAp =   3.654821151576789E-005  rzold =   3.542922499595603E-005  alpha = 
  0.969383275585753     
 delta_qm =   0.102491E-03 delta_en =   0.181517E-01 tol =   0.100000E-12
 Iteration #         20
  pAp =   5.667042305767367E-005  rzold =   2.832750816935488E-005  alpha = 
  0.499864067372955     
 delta_qm =   0.953073E-04 delta_en =   0.156962E-01 tol =   0.100000E-12
 Iteration #         21
  pAp =   2.365112613167924E-005  rzold =   1.402101889333094E-005  alpha = 
  0.592826693125223     
 delta_qm =   0.670295E-04 delta_en =   0.776381E-02 tol =   0.100000E-12
 Iteration #         22
  pAp =   1.850466450724212E-005  rzold =   8.847175660731781E-006  alpha = 
  0.478105164093588     
 delta_qm =   0.510657E-04 delta_en =   0.450611E-02 tol =   0.100000E-12
 Iteration #         23
  pAp =   3.839670498194922E-005  rzold =   1.074864678041860E-005  alpha = 
  0.279936697314826     
 delta_qm =   0.429752E-04 delta_en =   0.319139E-02 tol =   0.100000E-12
 Iteration #         24
  pAp =   1.782595018915956E-005  rzold =   6.086326309977843E-006  alpha = 
  0.341430680855324     
 delta_qm =   0.340369E-04 delta_en =   0.200191E-02 tol =   0.100000E-12
 Iteration #         25
  pAp =   5.743075776669863E-006  rzold =   2.732809535907714E-006  alpha = 
  0.475844241340020     
 delta_qm =   0.194570E-04 delta_en =   0.654179E-03 tol =   0.100000E-12
 Iteration #         26
  pAp =   3.464209015354990E-006  rzold =   7.473556920895078E-007  alpha = 
  0.215736316364538     
 delta_qm =   0.167880E-04 delta_en =   0.487015E-03 tol =   0.100000E-12
 Iteration #         27
  pAp =   2.611387521087969E-006  rzold =   6.445742393807004E-007  alpha = 
  0.246832089904510     
 delta_qm =   0.988106E-05 delta_en =   0.168714E-03 tol =   0.100000E-12
 Iteration #         28
  pAp =   2.215080299046852E-007  rzold =   1.150461753797229E-007  alpha = 
  0.519376996983934     
 delta_qm =   0.507998E-05 delta_en =   0.445931E-04 tol =   0.100000E-12
 Iteration #         29
  pAp =   1.015156894432903E-007  rzold =   4.323802459209140E-008  alpha = 
  0.425924552443152     
 delta_qm =   0.271451E-05 delta_en =   0.127329E-04 tol =   0.100000E-12
 Iteration #         30
  pAp =   1.773005676231728E-008  rzold =   1.035666659044839E-008  alpha = 
  0.584130481322542     
 delta_qm =   0.119235E-05 delta_en =   0.245671E-05 tol =   0.100000E-12
 Iteration #         31
  pAp =   3.424463998655935E-009  rzold =   2.108282615852584E-009  alpha = 
  0.615653315870764     
 delta_qm =   0.716549E-06 delta_en =   0.887229E-06 tol =   0.100000E-12
 Iteration #         32
  pAp =   1.690634467877505E-009  rzold =   9.300497160687876E-010  alpha = 
  0.550118747570793     
 delta_qm =   0.507886E-06 delta_en =   0.445735E-06 tol =   0.100000E-12
 Iteration #         33
  pAp =   4.075771694717115E-010  rzold =   2.589194975699056E-010  alpha = 
  0.635264968117593     
 delta_qm =   0.292781E-06 delta_en =   0.148126E-06 tol =   0.100000E-12
 Iteration #         34
  pAp =   1.209846219472256E-009  rzold =   2.558221845200498E-010  alpha = 
  0.211450166477886     
 delta_qm =   0.196933E-06 delta_en =   0.670165E-07 tol =   0.100000E-12
 Iteration #         35
  pAp =   3.193659117738921E-010  rzold =   1.211653280811043E-010  alpha = 
  0.379393428084110     
 delta_qm =   0.133236E-06 delta_en =   0.306751E-07 tol =   0.100000E-12
 Iteration #         36
  pAp =   7.864916554333069E-011  rzold =   4.013324427238216E-011  alpha = 
  0.510281882778162     
 delta_qm =   0.122699E-06 delta_en =   0.260149E-07 tol =   0.100000E-12
 Iteration #         37
  pAp =   1.208013123061456E-011  rzold =   1.563651727528169E-011  alpha = 
   1.29439962006822     
 delta_qm =   0.715475E-07 delta_en =   0.884571E-08 tol =   0.100000E-12
 Iteration #         38
  pAp =   2.237083068053187E-011  rzold =   1.242655212142941E-011  alpha = 
  0.555480138350141     
 delta_qm =   0.389609E-07 delta_en =   0.262303E-08 tol =   0.100000E-12
 Iteration #         39
  pAp =   3.319901270621175E-011  rzold =   5.388922544560104E-012  alpha = 
  0.162321771199895     
 delta_qm =   0.343501E-07 delta_en =   0.203892E-08 tol =   0.100000E-12
 Iteration #         40
  pAp =   4.197195164676873E-012  rzold =   1.562509838060185E-012  alpha = 
  0.372274763682684     
 delta_qm =   0.206347E-07 delta_en =   0.735768E-09 tol =   0.100000E-12
 Iteration #         41
  pAp =   1.010685775143834E-012  rzold =   4.139762310522106E-013  alpha = 
  0.409599344557210     
 delta_qm =   0.125404E-07 delta_en =   0.271750E-09 tol =   0.100000E-12
 Iteration #         42
  pAp =   5.296268416880839E-013  rzold =   2.564311574610814E-013  alpha = 
  0.484173265546278     
 delta_qm =   0.787973E-08 delta_en =   0.107292E-09 tol =   0.100000E-12
 Iteration #         43
  pAp =   2.024978918011018E-013  rzold =   1.332065296720376E-013  alpha = 
  0.657816871510328     
 delta_qm =   0.972532E-08 delta_en =   0.163437E-09 tol =   0.100000E-12
 Iteration #         44
  pAp =   1.239216298020389E-013  rzold =   1.068007264102314E-013  alpha = 
  0.861840879440034     
 delta_qm =   0.102626E-07 delta_en =   0.181995E-09 tol =   0.100000E-12
 Iteration #         45
  pAp =   2.195088915071513E-013  rzold =   1.417130508208632E-013  alpha = 
  0.645591391983529     
 delta_qm =   0.902952E-08 delta_en =   0.140888E-09 tol =   0.100000E-12
 Iteration #         46
  pAp =   1.320018977853218E-012  rzold =   2.368142882739661E-013  alpha = 
  0.179402184549728     
 delta_qm =   0.786693E-08 delta_en =   0.106944E-09 tol =   0.100000E-12
 Iteration #         47
  pAp =   2.877508261834860E-013  rzold =   1.281933991945216E-013  alpha = 
  0.445501411393962     
 delta_qm =   0.521664E-08 delta_en =   0.470247E-10 tol =   0.100000E-12
 Iteration #         48
  pAp =   6.424701147980573E-014  rzold =   3.399335693627149E-014  alpha = 
  0.529104096101908     
 delta_qm =   0.255960E-08 delta_en =   0.113211E-10 tol =   0.100000E-12
 Iteration #         49
  pAp =   1.989168009845591E-014  rzold =   7.717805103152326E-015  alpha = 
  0.387991615838997     
 delta_qm =   0.133360E-08 delta_en =   0.307321E-11 tol =   0.100000E-12
 Iteration #         50
  pAp =   1.110844628685614E-014  rzold =   3.351492965188881E-015  alpha = 
  0.301706726453228     
 delta_qm =   0.698992E-09 delta_en =   0.844284E-12 tol =   0.100000E-12
 Iteration #         51
  pAp =   6.114784107907397E-016  rzold =   4.423670440196446E-016  alpha = 
  0.723438532273925     
 delta_qm =   0.306735E-09 delta_en =   0.162581E-12 tol =   0.100000E-12
 Iteration #         52
  pAp =   2.529492155130168E-016  rzold =   1.036963946431895E-016  alpha = 
  0.409949461329139     
 delta_qm =   0.208848E-09 delta_en =   0.753711E-13 tol =   0.100000E-12
 Charges are converged, EXIT

%%%% DENSITY %%%%%%%%%%%%%%%%%%%%%%%%%%%%%%%%%%%%%%%%%%%%%%%%%%%%%%%%%%%%%%%%%%%
 density label              = velectrostatic                                                                  
 integral of density        =     0.1780962209E-12

%%%% CHARGES %%%%%%%%%%%%%%%%%%%%%%%%%%%%%%%%%%%%%%%%%%%%%%%%%%%%%%%%%%%%%%%%%%%
 total number of charges    =         11
 total charge               =     -0.0000000

%%%% DENSITY %%%%%%%%%%%%%%%%%%%%%%%%%%%%%%%%%%%%%%%%%%%%%%%%%%%%%%%%%%%%%%%%%%%
 density label              = vsoftcavity                                                                     
 integral of density        =      12.37778536    

%%%% ELECTRONS %%%%%%%%%%%%%%%%%%%%%%%%%%%%%%%%%%%%%%%%%%%%%%%%%%%%%%%%%%%%%%%%%
 number of electrons        =          8
 total electronic charge    =      8.0000000

%%%% BOUNDARY %%%%%%%%%%%%%%%%%%%%%%%%%%%%%%%%%%%%%%%%%%%%%%%%%%%%%%%%%%%%%%%%%%
 boundary label             = solvent              
 boundary mode              = electronic           
 boundary is built as a function of a smooth density
 function type              =  1 
 using the optimal SCCS function with parameters 
 rhomax                     =      0.0050000 
 rhomin                     =      0.0001000 
 volume of the QM region    =    230.8545130 
 surface of the QM region   =    181.1262843 

%%%% DIELECTRIC %%%%%%%%%%%%%%%%%%%%%%%%%%%%%%%%%%%%%%%%%%%%%%%%%%%%%%%%%%%%%%%%%
 dielectric build in the presence of dielectric regions
 environment bulk permitt.  =      1.0000000 
 number of dielec. regions  =    1 

%%%% FUNCTIONS %%%%%%%%%%%%%%%%%%%%%%%%%%%%%%%%%%%%%%%%%%%%%%%%%%%%%%%%%%%%%%%%%
 number of functions        =          1
 Scaled ERFC function, type = 4 
 number                     =   1 
 dimensionality             = 0 
 axis                       = 3 
 width                      =     6.000000 
 spread                     =     0.500000 
 max value                  =   100.000000 
 dielectric flags
 need gradient              =  F 
 need factor depend. sqrt   =  T 
 total dielectric charge    =     -0.0001230

%%%% DENSITY %%%%%%%%%%%%%%%%%%%%%%%%%%%%%%%%%%%%%%%%%%%%%%%%%%%%%%%%%%%%%%%%%%%
 density label              = vreference                                                                      
 integral of density        =     0.1942150144E-12

%%%% DENSITY %%%%%%%%%%%%%%%%%%%%%%%%%%%%%%%%%%%%%%%%%%%%%%%%%%%%%%%%%%%%%%%%%%%
 density label              = velectrostatic                                                                  
 integral of density        =     0.1780962209E-12

%%%% CHARGES %%%%%%%%%%%%%%%%%%%%%%%%%%%%%%%%%%%%%%%%%%%%%%%%%%%%%%%%%%%%%%%%%%%
 total number of charges    =         11
 total charge               =     -0.0000000

%%%% DENSITY %%%%%%%%%%%%%%%%%%%%%%%%%%%%%%%%%%%%%%%%%%%%%%%%%%%%%%%%%%%%%%%%%%%
 density label              = vsoftcavity                                                                     
 integral of density        =      12.37778536    
