
     Program PWSCF v.6.3MaX starts on 21Apr2019 at 23:35:22 

     This program is part of the open-source Quantum ESPRESSO suite
     for quantum simulation of materials; please cite
         "P. Giannozzi et al., J. Phys.:Condens. Matter 21 395502 (2009);
         "P. Giannozzi et al., J. Phys.:Condens. Matter 29 465901 (2017);
          URL http://www.quantum-espresso.org", 
     in publications or presentations arising from this work. More details at
     http://www.quantum-espresso.org/quote

     Parallel version (MPI), running on     1 processors

     MPI processes distributed on     1 nodes
     Reading input from pw.in

     Current dimensions of program PWSCF are:
     Max number of different atomic species (ntypx) = 10
     Max number of k-points (npk) =  40000
     Max angular momentum in pseudopotentials (lmaxx) =  3
               file H.pbe-rrkjus.UPF: wavefunction(s)  1S renormalized
               file O.pbe-rrkjus.UPF: wavefunction(s)  2S renormalized

     gamma-point specific algorithms are used

     Subspace diagonalization in iterative solution of the eigenvalue problem:
     a serial algorithm will be used

 
     G-vector sticks info
     --------------------
     sticks:   dense  smooth     PW     G-vecs:    dense   smooth      PW
     Sum        9549    3809    949               701475   177509   22119
 


     bravais-lattice index     =            1
     lattice parameter (alat)  =      20.0000  a.u.
     unit-cell volume          =    8000.0000 (a.u.)^3
     number of atoms/cell      =            3
     number of atomic types    =            2
     number of electrons       =         8.00
     number of Kohn-Sham states=            4
     kinetic-energy cutoff     =      30.0000  Ry
     charge density cutoff     =     300.0000  Ry
     convergence threshold     =      5.0E-03
     mixing beta               =       0.7000
     number of iterations used =            8  plain     mixing
     Exchange-correlation      = SLA PW PBE PBE ( 1  4  3  4 0 0)
 

     Environ Module
     ==============

     Plese cite
         O. Andreussi, I. Dabo and N. Marzari, J. Chem. Phys. 136, 064102 (2012)         
     in publications or presentations arising from this work.

     compensation onset threshold      =               0.1000E+03 
     switching function adopted        =                     SCCS 
     density limit for vacuum region   =               0.5000E-02 
     density limit for bulk solvent    =               0.1000E-03 

     Electrostatic Setup
     -------------------
     electrostatic problem to solve    = generalized              
     numerical solver adopted          = cg                       
     type of auxiliary density adopted = none                     
     type of core tool for poisson     = fft                      
     type of core tool for s(r) deriv  = analytic                 



     celldm(1)=  20.000000  celldm(2)=   0.000000  celldm(3)=   0.000000
     celldm(4)=   0.000000  celldm(5)=   0.000000  celldm(6)=   0.000000

     crystal axes: (cart. coord. in units of alat)
               a(1) = (   1.000000   0.000000   0.000000 )  
               a(2) = (   0.000000   1.000000   0.000000 )  
               a(3) = (   0.000000   0.000000   1.000000 )  

     reciprocal axes: (cart. coord. in units 2 pi/alat)
               b(1) = (  1.000000  0.000000  0.000000 )  
               b(2) = (  0.000000  1.000000  0.000000 )  
               b(3) = (  0.000000  0.000000  1.000000 )  


     PseudoPot. # 1 for H  read from file:
     /home/fnattino/Programs/quantumespresso/q-e-qe-6.3-develop/Environ/tests/../..//pseudo/H.pbe-rrkjus.UPF
     MD5 check sum: 2d52a7f45632fd764c17cc6affed14c8
     Pseudo is Ultrasoft, Zval =  1.0
     Generated by new atomic code, or converted to UPF format
     Using radial grid of 1061 points,  2 beta functions with: 
                l(1) =   0
                l(2) =   0
     Q(r) pseudized with 0 coefficients 


     PseudoPot. # 2 for O  read from file:
     /home/fnattino/Programs/quantumespresso/q-e-qe-6.3-develop/Environ/tests/../..//pseudo/O.pbe-rrkjus.UPF
     MD5 check sum: fadcf19ee70a498d3030e2e79cf929a4
     Pseudo is Ultrasoft, Zval =  6.0
     Generated by new atomic code, or converted to UPF format
     Using radial grid of 1269 points,  4 beta functions with: 
                l(1) =   0
                l(2) =   0
                l(3) =   1
                l(4) =   1
     Q(r) pseudized with 0 coefficients 


     atomic species   valence    mass     pseudopotential
        H              1.00     1.00000     H ( 1.00)
        O              6.00    16.00000     O ( 1.00)

     No symmetry found



   Cartesian axes

     site n.     atom                  positions (alat units)
         1           O   tau(   1) = (   0.5895000   0.6025000   0.5750000  )
         2           H   tau(   2) = (   0.6725000   0.5610000   0.5750000  )
         3           H   tau(   3) = (   0.5280000   0.5330000   0.5750000  )

     number of k points=     1
                       cart. coord. in units 2pi/alat
        k(    1) = (   0.0000000   0.0000000   0.0000000), wk =   2.0000000

     Dense  grid:   350738 G-vectors     FFT dimensions: ( 120, 120, 120)

     Smooth grid:    88755 G-vectors     FFT dimensions: (  72,  72,  72)

     Estimated max dynamical RAM per process >     548.70 MB

     Initial potential from superposition of free atoms
     Check: negative starting charge=   -0.000775

     starting charge    7.80759, renormalised to    8.00000

     negative rho (up, down):  7.936E-04 0.000E+00
     Starting wfcs are    6 randomized atomic wfcs

     total cpu time spent up to now is        3.7 secs

     Self-consistent Calculation

     iteration #  1     ecut=    30.00 Ry     beta= 0.70
     Davidson diagonalization with overlap
     ethr =  1.00E-02,  avg # of iterations =  2.0

     negative rho (up, down):  2.595E-04 0.000E+00

     add environment contribution to local potential
     polarization accuracy = 6.4E-06, # of iterations =  30

     total cpu time spent up to now is        8.5 secs

     total energy              =     -34.06237118 Ry
     Harris-Foulkes estimate   =     -34.58698941 Ry
     estimated scf accuracy    <       0.68459185 Ry
     electrostatic embedding   =       0.00000000 Ry
     correction to one-el term =       0.00000000 Ry

     iteration #  2     ecut=    30.00 Ry     beta= 0.70
     Davidson diagonalization with overlap
     ethr =  8.56E-03,  avg # of iterations =  2.0

     negative rho (up, down):  3.121E-03 0.000E+00

     add environment contribution to local potential
     polarization accuracy = 7.3E-06, # of iterations =  31

     total cpu time spent up to now is       13.6 secs

     total energy              =     -34.16493482 Ry
     Harris-Foulkes estimate   =     -34.26745876 Ry
     estimated scf accuracy    <       0.45031565 Ry
     electrostatic embedding   =      -0.00278251 Ry
     correction to one-el term =      -0.11999887 Ry

     iteration #  3     ecut=    30.00 Ry     beta= 0.70
     Davidson diagonalization with overlap
     ethr =  5.63E-03,  avg # of iterations =  2.0

     negative rho (up, down):  3.193E-04 0.000E+00

     add environment contribution to local potential
     polarization accuracy = 2.2E-06, # of iterations =  31

     total cpu time spent up to now is       18.4 secs

     total energy              =     -34.26646326 Ry
     Harris-Foulkes estimate   =     -34.12415211 Ry
     estimated scf accuracy    <       0.01745010 Ry
     electrostatic embedding   =      -0.00027253 Ry
     correction to one-el term =      -0.15159483 Ry

     iteration #  4     ecut=    30.00 Ry     beta= 0.70
     Davidson diagonalization with overlap
     ethr =  2.18E-04,  avg # of iterations =  2.0

     negative rho (up, down):  2.191E-04 0.000E+00

     the potential shift due to the Gaussian-smeared nuclei is    -0.0214 ev

     total cpu time spent up to now is       19.8 secs

     End of self-consistent calculation

          k = 0.0000 0.0000 0.0000 ( 11060 PWs)   bands (ev):

   -25.0385 -12.9132  -9.1237  -7.1067

     highest occupied level (ev):    -7.1067

!    total energy              =     -34.27143297 Ry
     Harris-Foulkes estimate   =     -34.35578027 Ry
     estimated scf accuracy    <       0.00147122 Ry

     The total energy is the sum of the following terms:

     one-electron contribution =     -63.87792333 Ry
     hartree contribution      =      33.35051270 Ry
     xc contribution           =      -8.38495948 Ry
     ewald contribution        =       4.55735774 Ry
     electrostatic embedding   =      -0.00343843 Ry
     correction to one-el term =       0.08701783 Ry

     convergence has been achieved in   4 iterations

     Forces acting on atoms (cartesian axes, Ry/au):

     atom    1 type  2   force =     0.00682548   -0.03538660   -0.05163871
     atom    2 type  1   force =    -0.01910547    0.01462310    0.02582352
     atom    3 type  1   force =     0.01227998    0.02076349    0.02581519

     Total force =     0.080370     Total SCF correction =     0.110651
     SCF correction compared to forces is large: reduce conv_thr to get better values

     Writing output data file pwscf.save/
 
     init_run     :      2.89s CPU      3.37s WALL (       1 calls)
     electrons    :     13.61s CPU     16.12s WALL (       1 calls)
     forces       :      0.36s CPU      0.43s WALL (       1 calls)

     Called by init_run:
     wfcinit      :      0.04s CPU      0.04s WALL (       1 calls)
     potinit      :      1.20s CPU      1.38s WALL (       1 calls)
     hinit0       :      1.42s CPU      1.50s WALL (       1 calls)

     Called by electrons:
     c_bands      :      0.29s CPU      0.29s WALL (       4 calls)
     sum_band     :      0.72s CPU      0.91s WALL (       4 calls)
     v_of_rho     :      2.10s CPU      2.33s WALL (       5 calls)
     newd         :      0.62s CPU      0.92s WALL (       5 calls)
     mix_rho      :      0.18s CPU      0.17s WALL (       4 calls)

     Called by c_bands:
     init_us_2    :      0.02s CPU      0.02s WALL (       9 calls)
     regterg      :      0.27s CPU      0.27s WALL (       4 calls)

     Called by sum_band:
     sum_band:bec :      0.00s CPU      0.00s WALL (       4 calls)
     addusdens    :      0.53s CPU      0.73s WALL (       4 calls)

     Called by *egterg:
     h_psi        :      0.28s CPU      0.28s WALL (      13 calls)
     s_psi        :      0.00s CPU      0.00s WALL (      13 calls)
     g_psi        :      0.00s CPU      0.00s WALL (       8 calls)
     rdiaghg      :      0.00s CPU      0.00s WALL (      12 calls)

     Called by h_psi:
     h_psi:pot    :      0.28s CPU      0.28s WALL (      13 calls)
     h_psi:calbec :      0.00s CPU      0.00s WALL (      13 calls)
     vloc_psi     :      0.28s CPU      0.28s WALL (      13 calls)
     add_vuspsi   :      0.00s CPU      0.00s WALL (      13 calls)

     General routines
     calbec       :      0.00s CPU      0.01s WALL (      21 calls)
     fft          :      5.34s CPU      5.39s WALL (     305 calls)
     ffts         :      0.02s CPU      0.03s WALL (       9 calls)
     fftw         :      0.26s CPU      0.25s WALL (      62 calls)
     interpolate  :      0.14s CPU      0.15s WALL (       5 calls)
 
     Parallel routines
 
     Environ routines
     calc_eelect  :      0.01s CPU      0.01s WALL (       8 calls)
     calc_velect  :      7.48s CPU      9.05s WALL (       6 calls)
     dielectric   :      1.43s CPU      1.58s WALL (       6 calls)
     calc_felect  :      0.04s CPU      0.05s WALL (       1 calls)
 
     PWSCF        :    17.21s CPU        20.30s WALL

 
   This run was terminated on:  23:35:42  21Apr2019            

=------------------------------------------------------------------------------=
   JOB DONE.
=------------------------------------------------------------------------------=

%%%% IONS %%%%%%%%%%%%%%%%%%%%%%%%%%%%%%%%%%%%%%%%%%%%%%%%%%%%%%%%%%%%%%%%%%%%%%
 number of ions             =          3
 ionic center of charge     =      0.5921875     0.5886250     0.5750000
 total ionic charge         =     -8.0000000
 ionic dipole               =      0.0000000     0.0000000     0.0000000
 ionic quadrupole (pc)      =     -4.2453875    -2.0049500     0.0000000
 ionic quadrupole (gauss)   =     -5.2453875    -3.0049500    -1.0000000
 ion   1 type =  2 coordinates =     11.7900000    12.0500000    11.5000000
 ion   2 type =  1 coordinates =     13.4500000    11.2200000    11.5000000
 ion   3 type =  1 coordinates =     10.5600000    10.6600000    11.5000000

%%%% SYSTEM %%%%%%%%%%%%%%%%%%%%%%%%%%%%%%%%%%%%%%%%%%%%%%%%%%%%%%%%%%%%%%%%%%%%
 system is built from all present ionic types
 system defined dimension   =  0 
 system defined axis        =  3 
 system center              =      0.5921875     0.5886250     0.5750000 
 system width               =      0.0849363 

%%%% ELECTRONS %%%%%%%%%%%%%%%%%%%%%%%%%%%%%%%%%%%%%%%%%%%%%%%%%%%%%%%%%%%%%%%%%
 number of electrons        =          8
 total electronic charge    =      8.0000000
 number of spin components  =  1

%%%% BOUNDARY %%%%%%%%%%%%%%%%%%%%%%%%%%%%%%%%%%%%%%%%%%%%%%%%%%%%%%%%%%%%%%%%%%
 boundary label             = solvent              
 boundary mode              = electronic           
 boundary is built as a function of a smooth density
 function type              =  1 
 using the optimal SCCS function with parameters 
 rhomax                     =      0.0050000 
 rhomin                     =      0.0001000 
 volume of the QM region    =    479.9702285 
 surface of the QM region   =    281.4538971 

%%%% DIELECTRIC %%%%%%%%%%%%%%%%%%%%%%%%%%%%%%%%%%%%%%%%%%%%%%%%%%%%%%%%%%%%%%%%%
 dielectric build in the presence of dielectric regions
 environment bulk permitt.  =      1.0000000 
 number of dielec. regions  =    1 

%%%% FUNCTIONS %%%%%%%%%%%%%%%%%%%%%%%%%%%%%%%%%%%%%%%%%%%%%%%%%%%%%%%%%%%%%%%%%
 number of functions        =          1
 Scaled ERFC function, type = 4 
 number                     =   1 
 dimensionality             = 2 
 axis                       = 3 
 width                      =     2.000000 
 spread                     =     0.500000 
 max value                  =   100.000000 
 dielectric flags
 need gradient              =  F 
 need factor depend. sqrt   =  T 
 total dielectric charge    =      0.0000000

%%%% DENSITY %%%%%%%%%%%%%%%%%%%%%%%%%%%%%%%%%%%%%%%%%%%%%%%%%%%%%%%%%%%%%%%%%%%
 density label              = vreference                                                                      
 integral of density        =      0.000000000    

%%%% DENSITY %%%%%%%%%%%%%%%%%%%%%%%%%%%%%%%%%%%%%%%%%%%%%%%%%%%%%%%%%%%%%%%%%%%
 density label              = velectrostatic                                                                  
 integral of density        =      0.000000000    

%%%% CHARGES %%%%%%%%%%%%%%%%%%%%%%%%%%%%%%%%%%%%%%%%%%%%%%%%%%%%%%%%%%%%%%%%%%%
 total number of charges    =         11
 total charge               =     -0.0000000

%%%% DENSITY %%%%%%%%%%%%%%%%%%%%%%%%%%%%%%%%%%%%%%%%%%%%%%%%%%%%%%%%%%%%%%%%%%%
 density label              = vsoftcavity                                                                     
 integral of density        =      0.000000000    

%%%% ELECTRONS %%%%%%%%%%%%%%%%%%%%%%%%%%%%%%%%%%%%%%%%%%%%%%%%%%%%%%%%%%%%%%%%%
 number of electrons        =          8
 total electronic charge    =      8.0000000
 number of spin components  =  1

%%%% BOUNDARY %%%%%%%%%%%%%%%%%%%%%%%%%%%%%%%%%%%%%%%%%%%%%%%%%%%%%%%%%%%%%%%%%%
 boundary label             = solvent              
 boundary mode              = electronic           
 boundary is built as a function of a smooth density
 function type              =  1 
 using the optimal SCCS function with parameters 
 rhomax                     =      0.0050000 
 rhomin                     =      0.0001000 
 volume of the QM region    =    220.5940716 
 surface of the QM region   =    175.4343928 

%%%% DIELECTRIC %%%%%%%%%%%%%%%%%%%%%%%%%%%%%%%%%%%%%%%%%%%%%%%%%%%%%%%%%%%%%%%%%
 dielectric build in the presence of dielectric regions
 environment bulk permitt.  =      1.0000000 
 number of dielec. regions  =    1 

%%%% FUNCTIONS %%%%%%%%%%%%%%%%%%%%%%%%%%%%%%%%%%%%%%%%%%%%%%%%%%%%%%%%%%%%%%%%%
 number of functions        =          1
 Scaled ERFC function, type = 4 
 number                     =   1 
 dimensionality             = 2 
 axis                       = 3 
 width                      =     2.000000 
 spread                     =     0.500000 
 max value                  =   100.000000 
 dielectric flags
 need gradient              =  F 
 need factor depend. sqrt   =  T 
 total dielectric charge    =      0.0000000

%%%% DENSITY %%%%%%%%%%%%%%%%%%%%%%%%%%%%%%%%%%%%%%%%%%%%%%%%%%%%%%%%%%%%%%%%%%%
 density label              = vreference                                                                      
 integral of density        =     0.1091472591E-12

%%%% COMPUTE ELECTROSTATIC POTENTIAL %%%%%%%%%%%%%%%%%%%%%%%%%%%%%%%%%%%%%%%%%%%
 Iteration #          1
  pAp =    26.1926247023113       rzold =    26.1491317772443       alpha = 
  0.998339497260722     
 delta_qm =   0.258247E-02 delta_en =   0.115243E+02 tol =   0.100000E-04
 Iteration #          2
  pAp =    1.60594694248498       rzold =   0.227663192963386       alpha = 
  0.141762586882919     
 delta_qm =   0.775022E-03 delta_en =   0.103794E+01 tol =   0.100000E-04
 Iteration #          3
  pAp =   7.563385114509634E-002  rzold =   1.383417965727312E-002  alpha = 
  0.182909893491124     
 delta_qm =   0.382678E-03 delta_en =   0.253053E+00 tol =   0.100000E-04
 Iteration #          4
  pAp =   7.650474440834898E-003  rzold =   1.790641104690988E-003  alpha = 
  0.234056216844974     
 delta_qm =   0.313603E-03 delta_en =   0.169943E+00 tol =   0.100000E-04
 Iteration #          5
  pAp =   2.054151774653853E-003  rzold =   5.133023044745598E-004  alpha = 
  0.249885286378635     
 delta_qm =   0.280255E-03 delta_en =   0.135722E+00 tol =   0.100000E-04
 Iteration #          6
  pAp =   6.016478555349968E-004  rzold =   3.116393647095636E-004  alpha = 
  0.517976357503091     
 delta_qm =   0.242106E-03 delta_en =   0.101287E+00 tol =   0.100000E-04
 Iteration #          7
  pAp =   4.611341953059943E-004  rzold =   3.728666723992311E-004  alpha = 
  0.808586038933435     
 delta_qm =   0.286409E-03 delta_en =   0.141748E+00 tol =   0.100000E-04
 Iteration #          8
  pAp =   1.472896752613143E-003  rzold =   7.969137901582970E-004  alpha = 
  0.541052038267075     
 delta_qm =   0.325596E-03 delta_en =   0.183190E+00 tol =   0.100000E-04
 Iteration #          9
  pAp =   3.008118385173073E-003  rzold =   9.956463540735166E-004  alpha = 
  0.330986426259361     
 delta_qm =   0.280935E-03 delta_en =   0.136381E+00 tol =   0.100000E-04
 Iteration #         10
  pAp =   1.228306999718604E-003  rzold =   5.427081748589865E-004  alpha = 
  0.441834309324393     
 delta_qm =   0.287693E-03 delta_en =   0.143022E+00 tol =   0.100000E-04
 Iteration #         11
  pAp =   5.656760233216485E-004  rzold =   2.911889229142099E-004  alpha = 
  0.514762710295461     
 delta_qm =   0.279322E-03 delta_en =   0.134820E+00 tol =   0.100000E-04
 Iteration #         12
  pAp =   4.143260901165472E-004  rzold =   2.920950318463746E-004  alpha = 
  0.704988266039945     
 delta_qm =   0.267072E-03 delta_en =   0.123253E+00 tol =   0.100000E-04
 Iteration #         13
  pAp =   7.054733623333556E-004  rzold =   3.507138316428538E-004  alpha = 
  0.497132635147083     
 delta_qm =   0.229290E-03 delta_en =   0.908473E-01 tol =   0.100000E-04
 Iteration #         14
  pAp =   1.363410050534148E-003  rzold =   4.222151853971665E-004  alpha = 
  0.309675864008597     
 delta_qm =   0.196140E-03 delta_en =   0.664776E-01 tol =   0.100000E-04
 Iteration #         15
  pAp =   5.951848483461309E-004  rzold =   2.434059003310858E-004  alpha = 
  0.408958495847886     
 delta_qm =   0.190275E-03 delta_en =   0.625614E-01 tol =   0.100000E-04
 Iteration #         16
  pAp =   2.346314426624703E-004  rzold =   1.133329412345979E-004  alpha = 
  0.483025377794882     
 delta_qm =   0.161842E-03 delta_en =   0.452612E-01 tol =   0.100000E-04
 Iteration #         17
  pAp =   1.734743085520450E-004  rzold =   9.136168592526039E-005  alpha = 
  0.526658308586660     
 delta_qm =   0.131051E-03 delta_en =   0.296773E-01 tol =   0.100000E-04
 Iteration #         18
  pAp =   1.154168127282978E-004  rzold =   6.240692148621346E-005  alpha = 
  0.540709104774235     
 delta_qm =   0.787060E-04 delta_en =   0.107043E-01 tol =   0.100000E-04
 Iteration #         19
  pAp =   9.745054214673965E-005  rzold =   3.923808518147414E-005  alpha = 
  0.402646145594449     
 delta_qm =   0.509630E-04 delta_en =   0.448801E-02 tol =   0.100000E-04
 Iteration #         20
  pAp =   2.471159831594644E-005  rzold =   1.101619213438323E-005  alpha = 
  0.445790352915961     
 delta_qm =   0.425608E-04 delta_en =   0.313014E-02 tol =   0.100000E-04
 Iteration #         21
  pAp =   1.564522439000252E-005  rzold =   5.905143448518112E-006  alpha = 
  0.377440636280779     
 delta_qm =   0.340570E-04 delta_en =   0.200428E-02 tol =   0.100000E-04
 Iteration #         22
  pAp =   1.116876531068588E-005  rzold =   4.566989553545006E-006  alpha = 
  0.408907289794645     
 delta_qm =   0.257288E-04 delta_en =   0.114389E-02 tol =   0.100000E-04
 Iteration #         23
  pAp =   1.329167106480066E-005  rzold =   4.236864388043769E-006  alpha = 
  0.318760851618119     
 delta_qm =   0.195813E-04 delta_en =   0.662561E-03 tol =   0.100000E-04
 Iteration #         24
  pAp =   3.647722962457604E-006  rzold =   1.817904921548876E-006  alpha = 
  0.498367047130160     
 delta_qm =   0.132060E-04 delta_en =   0.301361E-03 tol =   0.100000E-04
 Iteration #         25
  pAp =   1.361991446567100E-006  rzold =   6.328340032630694E-007  alpha = 
  0.464638750014273     
 delta_qm =   0.103999E-04 delta_en =   0.186897E-03 tol =   0.100000E-04
 Iteration #         26
  pAp =   6.999782956947978E-007  rzold =   3.146639234322921E-007  alpha = 
  0.449533828931020     
 delta_qm =   0.782644E-05 delta_en =   0.105845E-03 tol =   0.100000E-04
 Iteration #         27
  pAp =   4.145593988471879E-007  rzold =   2.038939722570090E-007  alpha = 
  0.491832950414343     
 delta_qm =   0.541134E-05 delta_en =   0.506003E-04 tol =   0.100000E-04
 Iteration #         28
  pAp =   2.307261432222835E-007  rzold =   1.171242137704251E-007  alpha = 
  0.507633041209321     
 delta_qm =   0.365286E-05 delta_en =   0.230573E-04 tol =   0.100000E-04
 Iteration #         29
  pAp =   2.078970018801509E-007  rzold =   7.245487961491636E-008  alpha = 
  0.348513345356877     
 delta_qm =   0.270932E-05 delta_en =   0.126842E-04 tol =   0.100000E-04
 Iteration #         30
  pAp =   5.116399805972664E-008  rzold =   2.577381421351681E-008  alpha = 
  0.503749026482050     
 delta_qm =   0.191828E-05 delta_en =   0.635866E-05 tol =   0.100000E-04
 Charges are converged, EXIT

%%%% DENSITY %%%%%%%%%%%%%%%%%%%%%%%%%%%%%%%%%%%%%%%%%%%%%%%%%%%%%%%%%%%%%%%%%%%
 density label              = velectrostatic                                                                  
 integral of density        =    -0.3552713679E-14

%%%% CHARGES %%%%%%%%%%%%%%%%%%%%%%%%%%%%%%%%%%%%%%%%%%%%%%%%%%%%%%%%%%%%%%%%%%%
 total number of charges    =         11
 total charge               =      0.0000000

%%%% DENSITY %%%%%%%%%%%%%%%%%%%%%%%%%%%%%%%%%%%%%%%%%%%%%%%%%%%%%%%%%%%%%%%%%%%
 density label              = vsoftcavity                                                                     
 integral of density        =      13.16567500    

%%%% ELECTRONS %%%%%%%%%%%%%%%%%%%%%%%%%%%%%%%%%%%%%%%%%%%%%%%%%%%%%%%%%%%%%%%%%
 number of electrons        =          8
 total electronic charge    =      8.0000000
 number of spin components  =  1

%%%% BOUNDARY %%%%%%%%%%%%%%%%%%%%%%%%%%%%%%%%%%%%%%%%%%%%%%%%%%%%%%%%%%%%%%%%%%
 boundary label             = solvent              
 boundary mode              = electronic           
 boundary is built as a function of a smooth density
 function type              =  1 
 using the optimal SCCS function with parameters 
 rhomax                     =      0.0050000 
 rhomin                     =      0.0001000 
 volume of the QM region    =    247.6151930 
 surface of the QM region   =    189.8277515 

%%%% DIELECTRIC %%%%%%%%%%%%%%%%%%%%%%%%%%%%%%%%%%%%%%%%%%%%%%%%%%%%%%%%%%%%%%%%%
 dielectric build in the presence of dielectric regions
 environment bulk permitt.  =      1.0000000 
 number of dielec. regions  =    1 

%%%% FUNCTIONS %%%%%%%%%%%%%%%%%%%%%%%%%%%%%%%%%%%%%%%%%%%%%%%%%%%%%%%%%%%%%%%%%
 number of functions        =          1
 Scaled ERFC function, type = 4 
 number                     =   1 
 dimensionality             = 2 
 axis                       = 3 
 width                      =     2.000000 
 spread                     =     0.500000 
 max value                  =   100.000000 
 dielectric flags
 need gradient              =  F 
 need factor depend. sqrt   =  T 
 total dielectric charge    =      0.0625140

%%%% DENSITY %%%%%%%%%%%%%%%%%%%%%%%%%%%%%%%%%%%%%%%%%%%%%%%%%%%%%%%%%%%%%%%%%%%
 density label              = vreference                                                                      
 integral of density        =     0.1490166015E-12

%%%% COMPUTE ELECTROSTATIC POTENTIAL %%%%%%%%%%%%%%%%%%%%%%%%%%%%%%%%%%%%%%%%%%%
 Warning: bad guess with residual norm =   0.804108E+01, reset to no guess
 Iteration #          1
  pAp =    28.5607300259083       rzold =    28.5351424932502       alpha = 
  0.999104100888358     
 delta_qm =   0.215553E-02 delta_en =   0.802884E+01 tol =   0.100000E-04
 Iteration #          2
  pAp =   0.956366653536115       rzold =   0.135451333775778       alpha = 
  0.141631175945913     
 delta_qm =   0.736393E-03 delta_en =   0.937052E+00 tol =   0.100000E-04
 Iteration #          3
  pAp =   4.394381854323727E-002  rzold =   7.894816206424503E-003  alpha = 
  0.179657036373765     
 delta_qm =   0.423766E-03 delta_en =   0.310310E+00 tol =   0.100000E-04
 Iteration #          4
  pAp =   4.465769672182853E-003  rzold =   1.122395575334480E-003  alpha = 
  0.251333064113416     
 delta_qm =   0.336452E-03 delta_en =   0.195610E+00 tol =   0.100000E-04
 Iteration #          5
  pAp =   1.394379602638199E-003  rzold =   3.852954811144421E-004  alpha = 
  0.276320365261693     
 delta_qm =   0.297957E-03 delta_en =   0.153409E+00 tol =   0.100000E-04
 Iteration #          6
  pAp =   4.885913278632744E-004  rzold =   2.980382366067839E-004  alpha = 
  0.609994937712414     
 delta_qm =   0.261042E-03 delta_en =   0.117751E+00 tol =   0.100000E-04
 Iteration #          7
  pAp =   4.988681513255891E-004  rzold =   4.553453040460811E-004  alpha = 
  0.912756813270482     
 delta_qm =   0.358473E-03 delta_en =   0.222053E+00 tol =   0.100000E-04
 Iteration #          8
  pAp =   2.219900993706411E-003  rzold =   1.101246103924391E-003  alpha = 
  0.496078927414559     
 delta_qm =   0.465639E-03 delta_en =   0.374664E+00 tol =   0.100000E-04
 Iteration #          9
  pAp =   3.616231156086279E-003  rzold =   1.142771632451704E-003  alpha = 
  0.316011776661005     
 delta_qm =   0.437583E-03 delta_en =   0.330876E+00 tol =   0.100000E-04
 Iteration #         10
  pAp =   1.222640939765448E-003  rzold =   5.926169775312005E-004  alpha = 
  0.484702383387300     
 delta_qm =   0.458398E-03 delta_en =   0.363103E+00 tol =   0.100000E-04
 Iteration #         11
  pAp =   7.100602052512422E-004  rzold =   4.380523805102310E-004  alpha = 
  0.616922871146164     
 delta_qm =   0.441281E-03 delta_en =   0.336492E+00 tol =   0.100000E-04
 Iteration #         12
  pAp =   8.312619681722694E-004  rzold =   6.005354015121803E-004  alpha = 
  0.722438201801296     
 delta_qm =   0.419198E-03 delta_en =   0.303656E+00 tol =   0.100000E-04
 Iteration #         13
  pAp =   1.980177907001029E-003  rzold =   8.613133386379983E-004  alpha = 
  0.434967653963201     
 delta_qm =   0.396203E-03 delta_en =   0.271256E+00 tol =   0.100000E-04
 Iteration #         14
  pAp =   2.937834258501016E-003  rzold =   1.035138009609317E-003  alpha = 
  0.352347313880627     
 delta_qm =   0.374807E-03 delta_en =   0.242751E+00 tol =   0.100000E-04
 Iteration #         15
  pAp =   1.286048208701141E-003  rzold =   5.764613672565667E-004  alpha = 
  0.448242424627900     
 delta_qm =   0.404726E-03 delta_en =   0.283051E+00 tol =   0.100000E-04
 Iteration #         16
  pAp =   5.476638005295762E-004  rzold =   2.824137893426257E-004  alpha = 
  0.515669995112949     
 delta_qm =   0.345452E-03 delta_en =   0.206214E+00 tol =   0.100000E-04
 Iteration #         17
  pAp =   4.772532851975421E-004  rzold =   2.606715251340325E-004  alpha = 
  0.546191159325675     
 delta_qm =   0.262185E-03 delta_en =   0.118784E+00 tol =   0.100000E-04
 Iteration #         18
  pAp =   3.462275911046779E-004  rzold =   1.814145026528857E-004  alpha = 
  0.523974712916618     
 delta_qm =   0.145257E-03 delta_en =   0.364599E-01 tol =   0.100000E-04
 Iteration #         19
  pAp =   2.610573724755765E-004  rzold =   1.025498680254108E-004  alpha = 
  0.392825021767983     
 delta_qm =   0.918066E-04 delta_en =   0.145644E-01 tol =   0.100000E-04
 Iteration #         20
  pAp =   6.347629476089345E-005  rzold =   2.823302060372168E-005  alpha = 
  0.444780539098440     
 delta_qm =   0.794169E-04 delta_en =   0.108986E-01 tol =   0.100000E-04
 Iteration #         21
  pAp =   3.590614317553250E-005  rzold =   1.625261364399923E-005  alpha = 
  0.452641587389264     
 delta_qm =   0.617187E-04 delta_en =   0.658229E-02 tol =   0.100000E-04
 Iteration #         22
  pAp =   1.824459271777557E-005  rzold =   1.125079585595158E-005  alpha = 
  0.616664675939300     
 delta_qm =   0.417796E-04 delta_en =   0.301629E-02 tol =   0.100000E-04
 Iteration #         23
  pAp =   2.646809304252053E-005  rzold =   8.140041564470524E-006  alpha = 
  0.307541671075196     
 delta_qm =   0.329223E-04 delta_en =   0.187294E-02 tol =   0.100000E-04
 Iteration #         24
  pAp =   1.928702410761973E-005  rzold =   6.098291732305127E-006  alpha = 
  0.316186245129225     
 delta_qm =   0.251772E-04 delta_en =   0.109536E-02 tol =   0.100000E-04
 Iteration #         25
  pAp =   3.646786886428355E-006  rzold =   1.771783463402903E-006  alpha = 
  0.485847821268815     
 delta_qm =   0.203794E-04 delta_en =   0.717675E-03 tol =   0.100000E-04
 Iteration #         26
  pAp =   2.160504927277248E-006  rzold =   9.144105659386891E-007  alpha = 
  0.423239287443359     
 delta_qm =   0.153539E-04 delta_en =   0.407364E-03 tol =   0.100000E-04
 Iteration #         27
  pAp =   1.471751612606667E-006  rzold =   6.729917907901096E-007  alpha = 
  0.457272670894616     
 delta_qm =   0.992729E-05 delta_en =   0.170296E-03 tol =   0.100000E-04
 Iteration #         28
  pAp =   5.353974730258044E-007  rzold =   3.289245648871808E-007  alpha = 
  0.614355841144076     
 delta_qm =   0.622619E-05 delta_en =   0.669866E-04 tol =   0.100000E-04
 Iteration #         29
  pAp =   3.772762363142733E-007  rzold =   1.511223137547334E-007  alpha = 
  0.400561443336833     
 delta_qm =   0.513441E-05 delta_en =   0.455539E-04 tol =   0.100000E-04
 Iteration #         30
  pAp =   1.544570446864378E-007  rzold =   6.351958816157798E-008  alpha = 
  0.411244357876513     
 delta_qm =   0.374949E-05 delta_en =   0.242934E-04 tol =   0.100000E-04
 Iteration #         31
  pAp =   3.688345768883128E-008  rzold =   1.971675573153380E-008  alpha = 
  0.534569071529979     
 delta_qm =   0.205131E-05 delta_en =   0.727123E-05 tol =   0.100000E-04
 Charges are converged, EXIT

%%%% DENSITY %%%%%%%%%%%%%%%%%%%%%%%%%%%%%%%%%%%%%%%%%%%%%%%%%%%%%%%%%%%%%%%%%%%
 density label              = velectrostatic                                                                  
 integral of density        =     0.4860638641E-12

%%%% CHARGES %%%%%%%%%%%%%%%%%%%%%%%%%%%%%%%%%%%%%%%%%%%%%%%%%%%%%%%%%%%%%%%%%%%
 total number of charges    =         11
 total charge               =      0.0000000

%%%% DENSITY %%%%%%%%%%%%%%%%%%%%%%%%%%%%%%%%%%%%%%%%%%%%%%%%%%%%%%%%%%%%%%%%%%%
 density label              = vsoftcavity                                                                     
 integral of density        =      34.14518843    

%%%% ELECTRONS %%%%%%%%%%%%%%%%%%%%%%%%%%%%%%%%%%%%%%%%%%%%%%%%%%%%%%%%%%%%%%%%%
 number of electrons        =          8
 total electronic charge    =      8.0000000
 number of spin components  =  1

%%%% BOUNDARY %%%%%%%%%%%%%%%%%%%%%%%%%%%%%%%%%%%%%%%%%%%%%%%%%%%%%%%%%%%%%%%%%%
 boundary label             = solvent              
 boundary mode              = electronic           
 boundary is built as a function of a smooth density
 function type              =  1 
 using the optimal SCCS function with parameters 
 rhomax                     =      0.0050000 
 rhomin                     =      0.0001000 
 volume of the QM region    =    227.8596199 
 surface of the QM region   =    180.0561018 

%%%% DIELECTRIC %%%%%%%%%%%%%%%%%%%%%%%%%%%%%%%%%%%%%%%%%%%%%%%%%%%%%%%%%%%%%%%%%
 dielectric build in the presence of dielectric regions
 environment bulk permitt.  =      1.0000000 
 number of dielec. regions  =    1 

%%%% FUNCTIONS %%%%%%%%%%%%%%%%%%%%%%%%%%%%%%%%%%%%%%%%%%%%%%%%%%%%%%%%%%%%%%%%%
 number of functions        =          1
 Scaled ERFC function, type = 4 
 number                     =   1 
 dimensionality             = 2 
 axis                       = 3 
 width                      =     2.000000 
 spread                     =     0.500000 
 max value                  =   100.000000 
 dielectric flags
 need gradient              =  F 
 need factor depend. sqrt   =  T 
 total dielectric charge    =      0.1341531

%%%% DENSITY %%%%%%%%%%%%%%%%%%%%%%%%%%%%%%%%%%%%%%%%%%%%%%%%%%%%%%%%%%%%%%%%%%%
 density label              = vreference                                                                      
 integral of density        =    -0.1605300255E-12

%%%% COMPUTE ELECTROSTATIC POTENTIAL %%%%%%%%%%%%%%%%%%%%%%%%%%%%%%%%%%%%%%%%%%%
 Warning: bad guess with residual norm =   0.837478E+01, reset to no guess
 Iteration #          1
  pAp =    28.3925712803915       rzold =    28.3691317256317       alpha = 
  0.999174447621236     
 delta_qm =   0.219990E-02 delta_en =   0.836278E+01 tol =   0.100000E-04
 Iteration #          2
  pAp =   0.860238631255214       rzold =   0.121681294772713       alpha = 
  0.141450628176465     
 delta_qm =   0.100781E-02 delta_en =   0.175510E+01 tol =   0.100000E-04
 Iteration #          3
  pAp =   3.958852306540782E-002  rzold =   7.688266871769619E-003  alpha = 
  0.194204437964688     
 delta_qm =   0.642531E-03 delta_en =   0.713397E+00 tol =   0.100000E-04
 Iteration #          4
  pAp =   4.558066063020358E-003  rzold =   1.242943277133298E-003  alpha = 
  0.272690930747431     
 delta_qm =   0.465124E-03 delta_en =   0.373836E+00 tol =   0.100000E-04
 Iteration #          5
  pAp =   1.550138154170239E-003  rzold =   4.929274250656875E-004  alpha = 
  0.317989350652131     
 delta_qm =   0.387030E-03 delta_en =   0.258841E+00 tol =   0.100000E-04
 Iteration #          6
  pAp =   8.019111722563063E-004  rzold =   5.640404427804956E-004  alpha = 
  0.703370226397366     
 delta_qm =   0.385646E-03 delta_en =   0.256993E+00 tol =   0.100000E-04
 Iteration #          7
  pAp =   6.397785572576197E-004  rzold =   1.279463908763340E-003  alpha = 
   1.99985431560523     
 delta_qm =   0.133212E-02 delta_en =   0.306639E+01 tol =   0.100000E-04
 Iteration #          8
  pAp =  -4.721381600119135E-003  rzold =   1.170360701089162E-002  alpha = 
  -2.47885216704286     
 delta_qm =   0.906861E-02 delta_en =   0.142110E+03 tol =   0.100000E-04
 Iteration #          9
  pAp =    2.09523593557939       rzold =   0.199093294199729       alpha = 
  9.502189744787626E-002
 delta_qm =   0.177344E-02 delta_en =   0.543474E+01 tol =   0.100000E-04
 Iteration #         10
  pAp =   4.704780690518303E-002  rzold =   1.059572326082076E-002  alpha = 
  0.225211842119967     
 delta_qm =   0.991976E-03 delta_en =   0.170038E+01 tol =   0.100000E-04
 Iteration #         11
  pAp =   6.986716148048445E-003  rzold =   2.891376200879850E-003  alpha = 
  0.413839082569209     
 delta_qm =   0.582074E-03 delta_en =   0.585463E+00 tol =   0.100000E-04
 Iteration #         12
  pAp =   4.458761348262502E-003  rzold =   1.813100251204677E-003  alpha = 
  0.406637653282611     
 delta_qm =   0.403323E-03 delta_en =   0.281092E+00 tol =   0.100000E-04
 Iteration #         13
  pAp =   2.352694456225302E-003  rzold =   7.950999378617694E-004  alpha = 
  0.337952910016815     
 delta_qm =   0.259573E-03 delta_en =   0.116429E+00 tol =   0.100000E-04
 Iteration #         14
  pAp =   1.836783563273493E-003  rzold =   4.467365857309220E-004  alpha = 
  0.243216781042375     
 delta_qm =   0.188339E-03 delta_en =   0.612952E-01 tol =   0.100000E-04
 Iteration #         15
  pAp =   3.599099527860191E-004  rzold =   1.480012290301323E-004  alpha = 
  0.411217383360679     
 delta_qm =   0.180946E-03 delta_en =   0.565774E-01 tol =   0.100000E-04
 Iteration #         16
  pAp =   1.004638925224782E-004  rzold =   6.314079746959487E-005  alpha = 
  0.628492445238149     
 delta_qm =   0.147708E-03 delta_en =   0.377010E-01 tol =   0.100000E-04
 Iteration #         17
  pAp =   1.685091683679190E-004  rzold =   7.371660588765309E-005  alpha = 
  0.437463472175603     
 delta_qm =   0.125384E-03 delta_en =   0.271659E-01 tol =   0.100000E-04
 Iteration #         18
  pAp =   6.502215536542354E-005  rzold =   4.074958072890373E-005  alpha = 
  0.626703013763412     
 delta_qm =   0.688136E-04 delta_en =   0.818261E-02 tol =   0.100000E-04
 Iteration #         19
  pAp =   3.838913749317783E-005  rzold =   1.542634659654871E-005  alpha = 
  0.401841447969237     
 delta_qm =   0.499244E-04 delta_en =   0.430695E-02 tol =   0.100000E-04
 Iteration #         20
  pAp =   1.784806325307124E-005  rzold =   7.823309349767132E-006  alpha = 
  0.438328194988939     
 delta_qm =   0.424873E-04 delta_en =   0.311933E-02 tol =   0.100000E-04
 Iteration #         21
  pAp =   7.813956210451902E-006  rzold =   4.770672207889469E-006  alpha = 
  0.610532242490462     
 delta_qm =   0.304516E-04 delta_en =   0.160237E-02 tol =   0.100000E-04
 Iteration #         22
  pAp =   6.783586452408817E-006  rzold =   3.806291930541237E-006  alpha = 
  0.561103180042711     
 delta_qm =   0.259136E-04 delta_en =   0.116037E-02 tol =   0.100000E-04
 Iteration #         23
  pAp =   8.140431383372366E-006  rzold =   2.692082100807593E-006  alpha = 
  0.330705090925087     
 delta_qm =   0.218215E-04 delta_en =   0.822832E-03 tol =   0.100000E-04
 Iteration #         24
  pAp =   6.088937230656121E-006  rzold =   1.863683846520483E-006  alpha = 
  0.306077033794559     
 delta_qm =   0.182276E-04 delta_en =   0.574118E-03 tol =   0.100000E-04
 Iteration #         25
  pAp =   2.229466798024798E-006  rzold =   8.475460993956085E-007  alpha = 
  0.380156412352269     
 delta_qm =   0.143828E-04 delta_en =   0.357463E-03 tol =   0.100000E-04
 Iteration #         26
  pAp =   7.908859922836242E-007  rzold =   4.024464559783799E-007  alpha = 
  0.508855207836399     
 delta_qm =   0.895129E-05 delta_en =   0.138457E-03 tol =   0.100000E-04
 Iteration #         27
  pAp =   6.578634185847010E-007  rzold =   2.760532773866516E-007  alpha = 
  0.419620957159376     
 delta_qm =   0.581420E-05 delta_en =   0.584149E-04 tol =   0.100000E-04
 Iteration #         28
  pAp =   3.037440112682023E-007  rzold =   1.376746964769605E-007  alpha = 
  0.453258966002775     
 delta_qm =   0.479213E-05 delta_en =   0.396826E-04 tol =   0.100000E-04
 Iteration #         29
  pAp =   1.522027101567892E-007  rzold =   5.628547400934815E-008  alpha = 
  0.369805990651327     
 delta_qm =   0.412678E-05 delta_en =   0.294284E-04 tol =   0.100000E-04
 Iteration #         30
  pAp =   4.125813871691459E-008  rzold =   2.179609154760100E-008  alpha = 
  0.528285866145126     
 delta_qm =   0.252117E-05 delta_en =   0.109837E-04 tol =   0.100000E-04
 Iteration #         31
  pAp =   1.539796830212810E-008  rzold =   8.273701368426034E-009  alpha = 
  0.537324223955089     
 delta_qm =   0.113552E-05 delta_en =   0.222811E-05 tol =   0.100000E-04
 Charges are converged, EXIT

%%%% DENSITY %%%%%%%%%%%%%%%%%%%%%%%%%%%%%%%%%%%%%%%%%%%%%%%%%%%%%%%%%%%%%%%%%%%
 density label              = velectrostatic                                                                  
 integral of density        =    -0.3840878233E-12

%%%% CHARGES %%%%%%%%%%%%%%%%%%%%%%%%%%%%%%%%%%%%%%%%%%%%%%%%%%%%%%%%%%%%%%%%%%%
 total number of charges    =         11
 total charge               =     -0.0000000

%%%% DENSITY %%%%%%%%%%%%%%%%%%%%%%%%%%%%%%%%%%%%%%%%%%%%%%%%%%%%%%%%%%%%%%%%%%%
 density label              = vsoftcavity                                                                     
 integral of density        =      9.327820120    

%%%% ELECTRONS %%%%%%%%%%%%%%%%%%%%%%%%%%%%%%%%%%%%%%%%%%%%%%%%%%%%%%%%%%%%%%%%%
 number of electrons        =          8
 total electronic charge    =      8.0000000
 number of spin components  =  1

%%%% BOUNDARY %%%%%%%%%%%%%%%%%%%%%%%%%%%%%%%%%%%%%%%%%%%%%%%%%%%%%%%%%%%%%%%%%%
 boundary label             = solvent              
 boundary mode              = electronic           
 boundary is built as a function of a smooth density
 function type              =  1 
 using the optimal SCCS function with parameters 
 rhomax                     =      0.0050000 
 rhomin                     =      0.0001000 
 volume of the QM region    =    227.8596199 
 surface of the QM region   =    180.0561018 

%%%% DIELECTRIC %%%%%%%%%%%%%%%%%%%%%%%%%%%%%%%%%%%%%%%%%%%%%%%%%%%%%%%%%%%%%%%%%
 dielectric build in the presence of dielectric regions
 environment bulk permitt.  =      1.0000000 
 number of dielec. regions  =    1 

%%%% FUNCTIONS %%%%%%%%%%%%%%%%%%%%%%%%%%%%%%%%%%%%%%%%%%%%%%%%%%%%%%%%%%%%%%%%%
 number of functions        =          1
 Scaled ERFC function, type = 4 
 number                     =   1 
 dimensionality             = 2 
 axis                       = 3 
 width                      =     2.000000 
 spread                     =     0.500000 
 max value                  =   100.000000 
 dielectric flags
 need gradient              =  F 
 need factor depend. sqrt   =  T 
 total dielectric charge    =     -0.0741322

%%%% DENSITY %%%%%%%%%%%%%%%%%%%%%%%%%%%%%%%%%%%%%%%%%%%%%%%%%%%%%%%%%%%%%%%%%%%
 density label              = vreference                                                                      
 integral of density        =    -0.1605300255E-12

%%%% DENSITY %%%%%%%%%%%%%%%%%%%%%%%%%%%%%%%%%%%%%%%%%%%%%%%%%%%%%%%%%%%%%%%%%%%
 density label              = velectrostatic                                                                  
 integral of density        =    -0.3840878233E-12

%%%% CHARGES %%%%%%%%%%%%%%%%%%%%%%%%%%%%%%%%%%%%%%%%%%%%%%%%%%%%%%%%%%%%%%%%%%%
 total number of charges    =         11
 total charge               =     -0.0000000

%%%% DENSITY %%%%%%%%%%%%%%%%%%%%%%%%%%%%%%%%%%%%%%%%%%%%%%%%%%%%%%%%%%%%%%%%%%%
 density label              = vsoftcavity                                                                     
 integral of density        =      9.327820120    
