
     Program PWSCF v.7.0 starts on 22Apr2022 at 20:39:46 

     This program is part of the open-source Quantum ESPRESSO suite
     for quantum simulation of materials; please cite
         "P. Giannozzi et al., J. Phys.:Condens. Matter 21 395502 (2009);
         "P. Giannozzi et al., J. Phys.:Condens. Matter 29 465901 (2017);
         "P. Giannozzi et al., J. Chem. Phys. 152 154105 (2020);
          URL http://www.quantum-espresso.org", 
     in publications or presentations arising from this work. More details at
     http://www.quantum-espresso.org/quote

     Parallel version (MPI), running on     1 processors

     MPI processes distributed on     1 nodes
     22849 MiB available memory on the printing compute node when the environment starts
 
     Reading input from pw.in

     Current dimensions of program PWSCF are:
     Max number of different atomic species (ntypx) = 10
     Max number of k-points (npk) =  40000
     Max angular momentum in pseudopotentials (lmaxx) =  4
 
     Reading input from environ.in:
     * using electronic solvent mode
     * setting boundary derivatives method to SCCS default
     * setting dielectric region spread to 0.5 (a.u.)
     * setting dielectric region dimensions to 0D
     
     file H.pbe-rrkjus.UPF: wavefunction(s)  1S renormalized
     file O.pbe-rrkjus.UPF: wavefunction(s)  2S renormalized

     gamma-point specific algorithms are used

     Subspace diagonalization in iterative solution of the eigenvalue problem:
     a serial algorithm will be used

 
     G-vector sticks info
     --------------------
     sticks:   dense  smooth     PW     G-vecs:    dense   smooth      PW
     Sum        9549    3809    949               701475   177509   22119
 
     Using Slab Decomposition
 


     bravais-lattice index     =            1
     lattice parameter (alat)  =      20.0000  a.u.
     unit-cell volume          =    8000.0000 (a.u.)^3
     number of atoms/cell      =            3
     number of atomic types    =            2
     number of electrons       =         8.00
     number of Kohn-Sham states=            4
     kinetic-energy cutoff     =      30.0000  Ry
     charge density cutoff     =     300.0000  Ry
     scf convergence threshold =      1.0E-08
     mixing beta               =       0.3000
     number of iterations used =            8  plain     mixing
     Exchange-correlation= SLA  PW   PBE  PBE
                           (   1   4   3   4   0   0   0)

     ================================================================================
 
                                  Environ Setup Summary

     ================================================================================
 
     Please cite

          O. Andreussi, I. Dabo and N. Marzari, J. Chem. Phys. 136, 064102 (2012)

     in publications or presentations arising from this work.

     ================================================================================
 
     Parameters
     ==========

     compensation onset threshold      =               0.1000E+03

     Solvent Boundary
     ================

     solvent mode                      =               electronic
     derivatives method                =                    chain
     numerical core for derivatives    =                      fft
     switching function adopted        =                     SCCS
     density limit for vacuum region   =               0.5000E-02
     density limit for bulk solvent    =               0.1000E-03

     Electrostatic Setup
     ===================

     electrostatic problem to solve    =              generalized
     numerical solver adopted          =                       cg
     type of auxiliary density adopted =                     none
     numerical core for poisson        =                      fft

     ================================================================================
 

     celldm(1)=  20.000000  celldm(2)=   0.000000  celldm(3)=   0.000000
     celldm(4)=   0.000000  celldm(5)=   0.000000  celldm(6)=   0.000000

     crystal axes: (cart. coord. in units of alat)
               a(1) = (   1.000000   0.000000   0.000000 )  
               a(2) = (   0.000000   1.000000   0.000000 )  
               a(3) = (   0.000000   0.000000   1.000000 )  

     reciprocal axes: (cart. coord. in units 2 pi/alat)
               b(1) = (  1.000000  0.000000  0.000000 )  
               b(2) = (  0.000000  1.000000  0.000000 )  
               b(3) = (  0.000000  0.000000  1.000000 )  


     PseudoPot. # 1 for H  read from file:
     MD5 check sum: 2d52a7f45632fd764c17cc6affed14c8
     Pseudo is Ultrasoft, Zval =  1.0
     Generated by new atomic code, or converted to UPF format
     Using radial grid of 1061 points,  2 beta functions with: 
                l(1) =   0
                l(2) =   0
     Q(r) pseudized with 0 coefficients 


     PseudoPot. # 2 for O  read from file:
     MD5 check sum: fadcf19ee70a498d3030e2e79cf929a4
     Pseudo is Ultrasoft, Zval =  6.0
     Generated by new atomic code, or converted to UPF format
     Using radial grid of 1269 points,  4 beta functions with: 
                l(1) =   0
                l(2) =   0
                l(3) =   1
                l(4) =   1
     Q(r) pseudized with 0 coefficients 


     atomic species   valence    mass     pseudopotential
        H              1.00     1.00000     H ( 1.00)
        O              6.00    16.00000     O ( 1.00)

     No symmetry found



   Cartesian axes

     site n.     atom                  positions (alat units)
         1           O   tau(   1) = (   0.5895000   0.6025000   0.5750000  )
         2           H   tau(   2) = (   0.6725000   0.5610000   0.5750000  )
         3           H   tau(   3) = (   0.5280000   0.5330000   0.5750000  )

     number of k points=     1
                       cart. coord. in units 2pi/alat
        k(    1) = (   0.0000000   0.0000000   0.0000000), wk =   2.0000000

     Dense  grid:   350738 G-vectors     FFT dimensions: ( 120, 120, 120)

     Smooth grid:    88755 G-vectors     FFT dimensions: (  72,  72,  72)

     Estimated max dynamical RAM per process >     530.91 MB

     Initial potential from superposition of free atoms

     starting charge       7.8076, renormalised to       8.0000

     negative rho (up, down):  7.936E-04 0.000E+00
     Starting wfcs are    6 randomized atomic wfcs

     total cpu time spent up to now is        3.3 secs

     Self-consistent Calculation

     iteration #  1     ecut=    30.00 Ry     beta= 0.30
     Davidson diagonalization with overlap
     ethr =  1.00E-02,  avg # of iterations =  2.0

     negative rho (up, down):  5.566E-04 0.000E+00

     add environment contribution to local potential
     Polarization accuracy = 6.5E-14, # of iterations =  37

     total cpu time spent up to now is        8.8 secs

     total energy              =     -34.29681090 Ry
     estimated scf accuracy    <       0.67469661 Ry
     electrostatic embedding   =       0.00000000 Ry
     correction to one-el term =       0.00000000 Ry

     iteration #  2     ecut=    30.00 Ry     beta= 0.30
     Davidson diagonalization with overlap
     ethr =  8.43E-03,  avg # of iterations =  1.0

     negative rho (up, down):  6.722E-04 0.000E+00

     add environment contribution to local potential
     Polarization accuracy = 2.9E-14, # of iterations =  50

     total cpu time spent up to now is       15.5 secs

     total energy              =     -34.26548536 Ry
     estimated scf accuracy    <       0.16797705 Ry
     electrostatic embedding   =      -0.04590663 Ry
     correction to one-el term =      -0.82127182 Ry

     iteration #  3     ecut=    30.00 Ry     beta= 0.30
     Davidson diagonalization with overlap
     ethr =  2.10E-03,  avg # of iterations =  2.0

     negative rho (up, down):  1.653E-03 0.000E+00

     add environment contribution to local potential
     Polarization accuracy = 7.3E-14, # of iterations =  54

     total cpu time spent up to now is       22.5 secs

     total energy              =     -34.28620215 Ry
     estimated scf accuracy    <       0.03782020 Ry
     electrostatic embedding   =      -0.03664656 Ry
     correction to one-el term =      -0.46578559 Ry

     iteration #  4     ecut=    30.00 Ry     beta= 0.30
     Davidson diagonalization with overlap
     ethr =  4.73E-04,  avg # of iterations =  2.0

     negative rho (up, down):  1.672E-03 0.000E+00

     add environment contribution to local potential
     Polarization accuracy = 6.1E-14, # of iterations =  54

     total cpu time spent up to now is       31.1 secs

     total energy              =     -34.29228147 Ry
     estimated scf accuracy    <       0.01681784 Ry
     electrostatic embedding   =      -0.03024772 Ry
     correction to one-el term =      -0.21438137 Ry

     iteration #  5     ecut=    30.00 Ry     beta= 0.30
     Davidson diagonalization with overlap
     ethr =  2.10E-04,  avg # of iterations =  2.0

     negative rho (up, down):  9.375E-04 0.000E+00

     add environment contribution to local potential
     Polarization accuracy = 4.0E-14, # of iterations =  54

     total cpu time spent up to now is       38.4 secs

     total energy              =     -34.29476240 Ry
     estimated scf accuracy    <       0.00111037 Ry
     electrostatic embedding   =      -0.03200048 Ry
     correction to one-el term =      -0.10983175 Ry

     iteration #  6     ecut=    30.00 Ry     beta= 0.30
     Davidson diagonalization with overlap
     ethr =  1.39E-05,  avg # of iterations =  2.0

     negative rho (up, down):  1.553E-03 0.000E+00

     add environment contribution to local potential
     Polarization accuracy = 2.1E-14, # of iterations =  54

     total cpu time spent up to now is       46.1 secs

     total energy              =     -34.29525050 Ry
     estimated scf accuracy    <       0.00013397 Ry
     electrostatic embedding   =      -0.03361447 Ry
     correction to one-el term =      -0.10999877 Ry

     iteration #  7     ecut=    30.00 Ry     beta= 0.30
     Davidson diagonalization with overlap
     ethr =  1.67E-06,  avg # of iterations =  1.0

     negative rho (up, down):  1.149E-03 0.000E+00

     add environment contribution to local potential
     Polarization accuracy = 8.7E-14, # of iterations =  53

     total cpu time spent up to now is       54.2 secs

     total energy              =     -34.29531400 Ry
     estimated scf accuracy    <       0.00000563 Ry
     electrostatic embedding   =      -0.03427434 Ry
     correction to one-el term =      -0.07516205 Ry

     iteration #  8     ecut=    30.00 Ry     beta= 0.30
     Davidson diagonalization with overlap
     ethr =  7.04E-08,  avg # of iterations =  2.0

     negative rho (up, down):  7.549E-04 0.000E+00

     add environment contribution to local potential
     Polarization accuracy = 6.8E-14, # of iterations =  53

     total cpu time spent up to now is       61.0 secs

     total energy              =     -34.29531612 Ry
     estimated scf accuracy    <       0.00000306 Ry
     electrostatic embedding   =      -0.03435434 Ry
     correction to one-el term =      -0.07472158 Ry

     iteration #  9     ecut=    30.00 Ry     beta= 0.30
     Davidson diagonalization with overlap
     ethr =  3.83E-08,  avg # of iterations =  2.0

     negative rho (up, down):  5.435E-04 0.000E+00

     add environment contribution to local potential
     Polarization accuracy = 6.9E-14, # of iterations =  53

     total cpu time spent up to now is       68.2 secs

     total energy              =     -34.29531708 Ry
     estimated scf accuracy    <       0.00000132 Ry
     electrostatic embedding   =      -0.03442499 Ry
     correction to one-el term =      -0.07560431 Ry

     iteration # 10     ecut=    30.00 Ry     beta= 0.30
     Davidson diagonalization with overlap
     ethr =  1.66E-08,  avg # of iterations =  2.0

     negative rho (up, down):  3.941E-04 0.000E+00

     add environment contribution to local potential
     Polarization accuracy = 6.7E-14, # of iterations =  53

     total cpu time spent up to now is       75.0 secs

     total energy              =     -34.29531762 Ry
     estimated scf accuracy    <       0.00000020 Ry
     electrostatic embedding   =      -0.03450087 Ry
     correction to one-el term =      -0.07574128 Ry

     iteration # 11     ecut=    30.00 Ry     beta= 0.30
     Davidson diagonalization with overlap
     ethr =  2.55E-09,  avg # of iterations =  2.0

     negative rho (up, down):  3.111E-04 0.000E+00

     add environment contribution to local potential
     Polarization accuracy = 8.9E-14, # of iterations =  52

     total cpu time spent up to now is       81.8 secs

     total energy              =     -34.29531797 Ry
     estimated scf accuracy    <       0.00000004 Ry
     electrostatic embedding   =      -0.03456468 Ry
     correction to one-el term =      -0.07615131 Ry

     iteration # 12     ecut=    30.00 Ry     beta= 0.30
     Davidson diagonalization with overlap
     ethr =  4.79E-10,  avg # of iterations =  2.0

     negative rho (up, down):  2.121E-04 0.000E+00

     the potential shift due to the Gaussian-smeared nuclei is    -0.0214 ev

     total cpu time spent up to now is       83.0 secs

     End of self-consistent calculation

          k = 0.0000 0.0000 0.0000 ( 11060 PWs)   bands (ev):

   -24.6099 -12.3748  -8.8140  -6.8494

     highest occupied level (ev):    -6.8494

!    total energy              =     -34.29531776 Ry
     estimated scf accuracy    <          6.7E-09 Ry

     The total energy is the sum of the following terms:
     one-electron contribution =     -63.83442155 Ry
     hartree contribution      =      33.49676993 Ry
     xc contribution           =      -8.40425486 Ry
     ewald contribution        =       4.55735774 Ry
     electrostatic embedding   =      -0.03457827 Ry
     correction to one-el term =      -0.07619076 Ry

     convergence has been achieved in  12 iterations

     Forces acting on atoms (cartesian axes, Ry/au):

     atom    1 type  2   force =     0.00224740   -0.01210800    0.00000002
     atom    2 type  1   force =    -0.00997644    0.00430720   -0.00000001
     atom    3 type  1   force =     0.00772904    0.00780081   -0.00000001

     Total force =     0.019757     Total SCF correction =     0.000099

 
     init_run     :      2.92s CPU      3.27s WALL (       1 calls)
     electrons    :     75.40s CPU     79.68s WALL (       1 calls)
     forces       :      0.30s CPU      0.36s WALL (       1 calls)

     Called by init_run:
     wfcinit      :      0.03s CPU      0.03s WALL (       1 calls)
     potinit      :      1.16s CPU      1.25s WALL (       1 calls)
     hinit0       :      1.34s CPU      1.41s WALL (       1 calls)

     Called by electrons:
     c_bands      :      0.58s CPU      0.58s WALL (      12 calls)
     sum_band     :      2.03s CPU      2.56s WALL (      12 calls)
     v_of_rho     :      4.39s CPU      4.92s WALL (      13 calls)
     newd         :      1.37s CPU      1.71s WALL (      13 calls)
     mix_rho      :      0.64s CPU      0.64s WALL (      12 calls)

     Called by c_bands:
     init_us_2    :      0.03s CPU      0.03s WALL (      25 calls)
     init_us_2:cp :      0.03s CPU      0.03s WALL (      25 calls)
     regterg      :      0.54s CPU      0.54s WALL (      12 calls)

     Called by *egterg:
     rdiaghg      :      0.00s CPU      0.00s WALL (      34 calls)
     h_psi        :      0.53s CPU      0.53s WALL (      35 calls)
     s_psi        :      0.01s CPU      0.01s WALL (      35 calls)
     g_psi        :      0.00s CPU      0.00s WALL (      22 calls)

     Called by h_psi:
     h_psi:calbec :      0.01s CPU      0.01s WALL (      35 calls)
     vloc_psi     :      0.51s CPU      0.51s WALL (      35 calls)
     add_vuspsi   :      0.01s CPU      0.01s WALL (      35 calls)

     General routines
     calbec       :      0.01s CPU      0.01s WALL (      51 calls)
     fft          :      2.21s CPU      2.23s WALL (     143 calls)
     ffts         :      0.07s CPU      0.07s WALL (      25 calls)
     fftw         :      0.43s CPU      0.46s WALL (     158 calls)
     interpolate  :      0.30s CPU      0.31s WALL (      13 calls)
 
     Parallel routines
 
     Environ routines
 
     PWSCF        :   1m18.66s CPU   1m23.37s WALL

 
   This run was terminated on:  20:41:10  22Apr2022            

=------------------------------------------------------------------------------=
   JOB DONE.
=------------------------------------------------------------------------------=

%%%% CELL %%%%%%%%%%%%%%%%%%%%%%%%%%%%%%%%%%%%%%%%%%%%%%%%%%%%%%%%%%%%%%%%%%%%%%

 cell label                 = system         

 cell volume                =    8000.000000

%%%% IONS %%%%%%%%%%%%%%%%%%%%%%%%%%%%%%%%%%%%%%%%%%%%%%%%%%%%%%%%%%%%%%%%%%%%%%

 total charge               =     -8.0000000
 center of charge           =     11.8140581    11.9257928    11.5000000
 dipole                     =      0.0000000     0.0000000     0.0000000
 quadrupole (pc)            =     -4.2524404    -2.1929396    -0.0000000
 quadrupole (gauss)         =     -5.2524404    -3.1929396    -1.0000000

   i | type | coordinates
 -----------------------------------------------------------------------
   1 |    2 |                     11.7900000    12.0500000    11.5000000
   2 |    1 |                     13.4500000    11.2200000    11.5000000
   3 |    1 |                     10.5600000    10.6600000    11.5000000

%%%% SYSTEM %%%%%%%%%%%%%%%%%%%%%%%%%%%%%%%%%%%%%%%%%%%%%%%%%%%%%%%%%%%%%%%%%%%%

 system is built from all present ionic types

 system defined dimension   =              0
 system defined axis        =              3

 system center              =     11.8140581    11.9257928    11.5000000
 system width               =      1.7818230

%%%% IONS %%%%%%%%%%%%%%%%%%%%%%%%%%%%%%%%%%%%%%%%%%%%%%%%%%%%%%%%%%%%%%%%%%%%%%

 total charge               =     -8.0000000
 center of charge           =     11.8140581    11.9257928    11.5000000
 dipole                     =      0.0000000     0.0000000     0.0000000
 quadrupole (pc)            =     -4.2524404    -2.1929396    -0.0000000
 quadrupole (gauss)         =     -5.2524404    -3.1929396    -1.0000000

   i | type | coordinates
 -----------------------------------------------------------------------
   1 |    2 |                     11.7900000    12.0500000    11.5000000
   2 |    1 |                     13.4500000    11.2200000    11.5000000
   3 |    1 |                     10.5600000    10.6600000    11.5000000

%%%% SYSTEM %%%%%%%%%%%%%%%%%%%%%%%%%%%%%%%%%%%%%%%%%%%%%%%%%%%%%%%%%%%%%%%%%%%%

 system is built from all present ionic types

 system defined dimension   =              0
 system defined axis        =              3

 system center              =     11.8140581    11.9257928    11.5000000
 system width               =      1.7818230

%%%% CHARGES %%%%%%%%%%%%%%%%%%%%%%%%%%%%%%%%%%%%%%%%%%%%%%%%%%%%%%%%%%%%%%%%%%%

 total number of charges    =              3

 total charge               =     -8.0000000

%%%% CHARGES %%%%%%%%%%%%%%%%%%%%%%%%%%%%%%%%%%%%%%%%%%%%%%%%%%%%%%%%%%%%%%%%%%%

 total number of charges    =              3

 total charge               =     -8.0000000

%%%% CELL %%%%%%%%%%%%%%%%%%%%%%%%%%%%%%%%%%%%%%%%%%%%%%%%%%%%%%%%%%%%%%%%%%%%%%

 cell label                 = system         

 cell volume                =    8000.000000

%%%% DIELECTRIC %%%%%%%%%%%%%%%%%%%%%%%%%%%%%%%%%%%%%%%%%%%%%%%%%%%%%%%%%%%%%%%%%

 dielectric build in the presence of dielectric regions:
 environment bulk permitt.  =      1.0000000
 number of dielec. regions  =              1

 dielectric flags:
 need gradient              =              F
 need factor depend. sqrt   =              T

 total dielectric charge    =      0.0000000

%%%% ELECTRONS %%%%%%%%%%%%%%%%%%%%%%%%%%%%%%%%%%%%%%%%%%%%%%%%%%%%%%%%%%%%%%%%%

 number of electrons        =              8

 total electronic charge    =      8.0000000

%%%% ELECTRONS %%%%%%%%%%%%%%%%%%%%%%%%%%%%%%%%%%%%%%%%%%%%%%%%%%%%%%%%%%%%%%%%%

 number of electrons        =              8

 total electronic charge    =      8.0000000

%%%% CHARGES %%%%%%%%%%%%%%%%%%%%%%%%%%%%%%%%%%%%%%%%%%%%%%%%%%%%%%%%%%%%%%%%%%%

 total number of charges    =             11

 total charge               =     -0.0000000

%%%% CHARGES %%%%%%%%%%%%%%%%%%%%%%%%%%%%%%%%%%%%%%%%%%%%%%%%%%%%%%%%%%%%%%%%%%%

 total number of charges    =             11

 total charge               =     -0.0000000

%%%% BOUNDARY %%%%%%%%%%%%%%%%%%%%%%%%%%%%%%%%%%%%%%%%%%%%%%%%%%%%%%%%%%%%%%%%%%

 boundary label             = solvent             
 boundary mode              = electronic          

 using the optimal SCCS function:
 rhomax                     =      0.0050000
 rhomin                     =      0.0001000

 volume of the QM region    =    479.9702285

 surface of the QM region   =    281.4538971

%%%% DENSITY %%%%%%%%%%%%%%%%%%%%%%%%%%%%%%%%%%%%%%%%%%%%%%%%%%%%%%%%%%%%%%%%%%%

 density label              = dvtot                                             

 integral of density        =    0.000000000    

%%%% DENSITY %%%%%%%%%%%%%%%%%%%%%%%%%%%%%%%%%%%%%%%%%%%%%%%%%%%%%%%%%%%%%%%%%%%

 density label              = vreference                                        

 integral of density        =    0.000000000    

%%%% DENSITY %%%%%%%%%%%%%%%%%%%%%%%%%%%%%%%%%%%%%%%%%%%%%%%%%%%%%%%%%%%%%%%%%%%

 density label              = velectrostatic                                    

 integral of density        =    0.000000000    

%%%% CHARGES %%%%%%%%%%%%%%%%%%%%%%%%%%%%%%%%%%%%%%%%%%%%%%%%%%%%%%%%%%%%%%%%%%%

 total number of charges    =             11

 total charge               =     -0.0000000

%%%% DENSITY %%%%%%%%%%%%%%%%%%%%%%%%%%%%%%%%%%%%%%%%%%%%%%%%%%%%%%%%%%%%%%%%%%%

 density label              = vsoftcavity                                       

 integral of density        =    0.000000000    

%%%% ELECTRONS %%%%%%%%%%%%%%%%%%%%%%%%%%%%%%%%%%%%%%%%%%%%%%%%%%%%%%%%%%%%%%%%%

 number of electrons        =              8

 total electronic charge    =      8.0000000

%%%% ELECTRONS %%%%%%%%%%%%%%%%%%%%%%%%%%%%%%%%%%%%%%%%%%%%%%%%%%%%%%%%%%%%%%%%%

 number of electrons        =              8

 total electronic charge    =      8.0000000

%%%% CHARGES %%%%%%%%%%%%%%%%%%%%%%%%%%%%%%%%%%%%%%%%%%%%%%%%%%%%%%%%%%%%%%%%%%%

 total number of charges    =             11

 total charge               =      0.0000000

%%%% CHARGES %%%%%%%%%%%%%%%%%%%%%%%%%%%%%%%%%%%%%%%%%%%%%%%%%%%%%%%%%%%%%%%%%%%

 total number of charges    =             11

 total charge               =      0.0000000

%%%% BOUNDARY %%%%%%%%%%%%%%%%%%%%%%%%%%%%%%%%%%%%%%%%%%%%%%%%%%%%%%%%%%%%%%%%%%

 boundary label             = solvent             
 boundary mode              = electronic          

 using the optimal SCCS function:
 rhomax                     =      0.0050000
 rhomin                     =      0.0001000

 volume of the QM region    =    345.1756690

 surface of the QM region   =    230.1361651

%%%% DENSITY %%%%%%%%%%%%%%%%%%%%%%%%%%%%%%%%%%%%%%%%%%%%%%%%%%%%%%%%%%%%%%%%%%%

 density label              = vreference                                        

 integral of density        =  -0.2798090977E-12

%%%% COMPUTE ELECTROSTATIC POTENTIAL %%%%%%%%%%%%%%%%%%%%%%%%%%%%%%%%%%%%%%%%%%%

   i |      alpha     |       pAp      |      rzold     |    delta_qm    |    delta_en    |       tol
 ---------------------------------------------------------------------------------------------------------
   1 |   0.974722E+00 |   0.293839E+02 |   0.286411E+02 |   0.702008E-02 |   0.851585E+02 |   0.100000E-12
   2 |   0.135817E+00 |   0.300993E+02 |   0.408800E+01 |   0.198707E-02 |   0.682290E+01 |   0.100000E-12
   3 |   0.222170E+00 |   0.809359E+00 |   0.179816E+00 |   0.512238E-03 |   0.453407E+00 |   0.100000E-12
   4 |   0.174559E+00 |   0.427653E-01 |   0.746507E-02 |   0.279502E-03 |   0.134994E+00 |   0.100000E-12
   5 |   0.289590E+00 |   0.486890E-02 |   0.140998E-02 |   0.200855E-03 |   0.697123E-01 |   0.100000E-12
   6 |   0.399690E+00 |   0.102095E-02 |   0.408064E-03 |   0.887283E-04 |   0.136040E-01 |   0.100000E-12
   7 |   0.344016E+00 |   0.214428E-03 |   0.737668E-04 |   0.863551E-04 |   0.128860E-01 |   0.100000E-12
   8 |   0.357445E+00 |   0.730151E-04 |   0.260989E-04 |   0.753834E-04 |   0.981963E-02 |   0.100000E-12
   9 |   0.172430E+01 |   0.118432E-04 |   0.204213E-04 |   0.588107E-04 |   0.597663E-02 |   0.100000E-12
  10 |   0.233994E+00 |   0.193577E-03 |   0.452957E-04 |   0.519243E-04 |   0.465892E-02 |   0.100000E-12
  11 |   0.361770E+00 |   0.593092E-04 |   0.214563E-04 |   0.411482E-04 |   0.292580E-02 |   0.100000E-12
  12 |   0.339013E+00 |   0.244773E-04 |   0.829812E-05 |   0.301888E-04 |   0.157484E-02 |   0.100000E-12
  13 |   0.588519E+00 |   0.490820E-05 |   0.288856E-05 |   0.194484E-04 |   0.653602E-03 |   0.100000E-12
  14 |   0.451555E+00 |   0.557748E-05 |   0.251854E-05 |   0.138540E-04 |   0.331660E-03 |   0.100000E-12
  15 |   0.657619E+00 |   0.140811E-05 |   0.926003E-06 |   0.900081E-05 |   0.139993E-03 |   0.100000E-12
  16 |   0.314511E+00 |   0.268025E-05 |   0.842969E-06 |   0.419277E-05 |   0.303771E-04 |   0.100000E-12
  17 |   0.338131E+00 |   0.725466E-06 |   0.245303E-06 |   0.273677E-05 |   0.129425E-04 |   0.100000E-12
  18 |   0.447834E+00 |   0.870708E-07 |   0.389933E-07 |   0.211907E-05 |   0.775951E-05 |   0.100000E-12
  19 |   0.360988E+00 |   0.333876E-07 |   0.120525E-07 |   0.170495E-05 |   0.502306E-05 |   0.100000E-12
  20 |   0.487825E+00 |   0.332305E-07 |   0.162107E-07 |   0.870234E-06 |   0.130863E-05 |   0.100000E-12
  21 |   0.490900E+00 |   0.115071E-07 |   0.564884E-08 |   0.533646E-06 |   0.492096E-06 |   0.100000E-12
  22 |   0.404091E+00 |   0.497432E-08 |   0.201008E-08 |   0.339721E-06 |   0.199429E-06 |   0.100000E-12
  23 |   0.581598E+00 |   0.605927E-09 |   0.352406E-09 |   0.200655E-06 |   0.695737E-07 |   0.100000E-12
  24 |   0.776196E+00 |   0.162999E-09 |   0.126519E-09 |   0.138313E-06 |   0.330573E-07 |   0.100000E-12
  25 |   0.683535E+00 |   0.773888E-10 |   0.528980E-10 |   0.805162E-07 |   0.112024E-07 |   0.100000E-12
  26 |   0.519629E+00 |   0.621793E-10 |   0.323102E-10 |   0.325199E-07 |   0.182744E-08 |   0.100000E-12
  27 |   0.457680E+00 |   0.728203E-11 |   0.333283E-11 |   0.202817E-07 |   0.710810E-09 |   0.100000E-12
  28 |   0.485749E+00 |   0.278880E-11 |   0.135466E-11 |   0.108508E-07 |   0.203453E-09 |   0.100000E-12
  29 |   0.443672E+00 |   0.100045E-11 |   0.443870E-12 |   0.793838E-08 |   0.108895E-09 |   0.100000E-12
  30 |   0.498573E+00 |   0.535077E-12 |   0.266775E-12 |   0.569586E-08 |   0.560611E-10 |   0.100000E-12
  31 |   0.475160E+00 |   0.289513E-12 |   0.137565E-12 |   0.344236E-08 |   0.204765E-10 |   0.100000E-12
  32 |   0.536014E+00 |   0.661261E-13 |   0.354446E-13 |   0.182285E-08 |   0.574174E-11 |   0.100000E-12
  33 |   0.499774E+00 |   0.167759E-13 |   0.838414E-14 |   0.986204E-09 |   0.168065E-11 |   0.100000E-12
  34 |   0.391776E+00 |   0.668469E-14 |   0.261890E-14 |   0.618159E-09 |   0.660304E-12 |   0.100000E-12
  35 |   0.248221E+00 |   0.999368E-14 |   0.248064E-14 |   0.435923E-09 |   0.328369E-12 |   0.100000E-12
  36 |   0.580823E+00 |   0.920635E-15 |   0.534726E-15 |   0.250723E-09 |   0.108625E-12 |   0.100000E-12
  37 |   0.232997E+00 |   0.181041E-14 |   0.421822E-15 |   0.194430E-09 |   0.653237E-13 |   0.100000E-12

 Charges are converged, EXIT

%%%% DENSITY %%%%%%%%%%%%%%%%%%%%%%%%%%%%%%%%%%%%%%%%%%%%%%%%%%%%%%%%%%%%%%%%%%%

 density label              = velectrostatic                                    

 integral of density        =  -0.1840174104E-12

%%%% CHARGES %%%%%%%%%%%%%%%%%%%%%%%%%%%%%%%%%%%%%%%%%%%%%%%%%%%%%%%%%%%%%%%%%%%

 total number of charges    =             11

 total charge               =      0.0000000

%%%% DENSITY %%%%%%%%%%%%%%%%%%%%%%%%%%%%%%%%%%%%%%%%%%%%%%%%%%%%%%%%%%%%%%%%%%%

 density label              = vsoftcavity                                       

 integral of density        =    22.97296686    

%%%% DENSITY %%%%%%%%%%%%%%%%%%%%%%%%%%%%%%%%%%%%%%%%%%%%%%%%%%%%%%%%%%%%%%%%%%%

 density label              = dvtot                                             

 integral of density        =    22.97296686    

%%%% ELECTRONS %%%%%%%%%%%%%%%%%%%%%%%%%%%%%%%%%%%%%%%%%%%%%%%%%%%%%%%%%%%%%%%%%

 number of electrons        =              8

 total electronic charge    =      8.0000000

%%%% ELECTRONS %%%%%%%%%%%%%%%%%%%%%%%%%%%%%%%%%%%%%%%%%%%%%%%%%%%%%%%%%%%%%%%%%

 number of electrons        =              8

 total electronic charge    =      8.0000000

%%%% CHARGES %%%%%%%%%%%%%%%%%%%%%%%%%%%%%%%%%%%%%%%%%%%%%%%%%%%%%%%%%%%%%%%%%%%

 total number of charges    =             11

 total charge               =     -0.0000000

%%%% CHARGES %%%%%%%%%%%%%%%%%%%%%%%%%%%%%%%%%%%%%%%%%%%%%%%%%%%%%%%%%%%%%%%%%%%

 total number of charges    =             11

 total charge               =     -0.0000000

%%%% BOUNDARY %%%%%%%%%%%%%%%%%%%%%%%%%%%%%%%%%%%%%%%%%%%%%%%%%%%%%%%%%%%%%%%%%%

 boundary label             = solvent             
 boundary mode              = electronic          

 using the optimal SCCS function:
 rhomax                     =      0.0050000
 rhomin                     =      0.0001000

 volume of the QM region    =    246.5676294

 surface of the QM region   =    188.3821484

%%%% DENSITY %%%%%%%%%%%%%%%%%%%%%%%%%%%%%%%%%%%%%%%%%%%%%%%%%%%%%%%%%%%%%%%%%%%

 density label              = vreference                                        

 integral of density        =   0.1184237893E-13

%%%% COMPUTE ELECTROSTATIC POTENTIAL %%%%%%%%%%%%%%%%%%%%%%%%%%%%%%%%%%%%%%%%%%%

 Warning: Bad guess with residual norm =   0.142249E+03, reset to no guess

   i |      alpha     |       pAp      |      rzold     |    delta_qm    |    delta_en    |       tol
 ---------------------------------------------------------------------------------------------------------
   1 |   0.979549E+00 |   0.283918E+02 |   0.278111E+02 |   0.892508E-02 |   0.137648E+03 |   0.100000E-12
   2 |   0.118738E+00 |   0.312222E+02 |   0.370726E+01 |   0.238029E-02 |   0.979045E+01 |   0.100000E-12
   3 |   0.190419E+00 |   0.100265E+01 |   0.190923E+00 |   0.603085E-03 |   0.628494E+00 |   0.100000E-12
   4 |   0.150846E+00 |   0.718986E-01 |   0.108456E-01 |   0.441980E-03 |   0.337558E+00 |   0.100000E-12
   5 |   0.303279E+00 |   0.539676E-02 |   0.163672E-02 |   0.255583E-03 |   0.112877E+00 |   0.100000E-12
   6 |   0.375441E+00 |   0.131390E-02 |   0.493290E-03 |   0.182308E-03 |   0.574324E-01 |   0.100000E-12
   7 |   0.301616E+00 |   0.773323E-03 |   0.233247E-03 |   0.186117E-03 |   0.598570E-01 |   0.100000E-12
   8 |   0.169562E+01 |   0.368673E-04 |   0.625130E-04 |   0.163577E-03 |   0.462366E-01 |   0.100000E-12
   9 |   0.766620E+00 |   0.251353E-03 |   0.192693E-03 |   0.133777E-03 |   0.309250E-01 |   0.100000E-12
  10 |   0.287347E+00 |   0.509785E-03 |   0.146485E-03 |   0.108047E-03 |   0.201728E-01 |   0.100000E-12
  11 |   0.385702E+00 |   0.784336E-04 |   0.302520E-04 |   0.825955E-04 |   0.117885E-01 |   0.100000E-12
  12 |   0.296645E+00 |   0.949748E-04 |   0.281738E-04 |   0.648383E-04 |   0.726453E-02 |   0.100000E-12
  13 |   0.462031E+00 |   0.365606E-04 |   0.168921E-04 |   0.600287E-04 |   0.622676E-02 |   0.100000E-12
  14 |   0.915883E+00 |   0.156813E-04 |   0.143623E-04 |   0.602008E-04 |   0.626251E-02 |   0.100000E-12
  15 |   0.429973E+00 |   0.406520E-04 |   0.174793E-04 |   0.520481E-04 |   0.468117E-02 |   0.100000E-12
  16 |   0.578883E+00 |   0.297381E-04 |   0.172149E-04 |   0.396299E-04 |   0.271387E-02 |   0.100000E-12
  17 |   0.468833E+00 |   0.895757E-05 |   0.419960E-05 |   0.371485E-04 |   0.238466E-02 |   0.100000E-12
  18 |   0.810147E+00 |   0.561263E-05 |   0.454705E-05 |   0.382416E-04 |   0.252707E-02 |   0.100000E-12
  19 |   0.395065E+00 |   0.348378E-04 |   0.137632E-04 |   0.417014E-04 |   0.300500E-02 |   0.100000E-12
  20 |   0.507696E+00 |   0.220266E-04 |   0.111828E-04 |   0.340753E-04 |   0.200642E-02 |   0.100000E-12
  21 |   0.470421E+00 |   0.873199E-05 |   0.410771E-05 |   0.235709E-04 |   0.960058E-03 |   0.100000E-12
  22 |   0.690653E+00 |   0.134752E-05 |   0.930672E-06 |   0.144654E-04 |   0.361582E-03 |   0.100000E-12
  23 |   0.475791E+00 |   0.128173E-05 |   0.609835E-06 |   0.106148E-04 |   0.194701E-03 |   0.100000E-12
  24 |   0.693238E+00 |   0.418766E-06 |   0.290305E-06 |   0.761899E-05 |   0.100309E-03 |   0.100000E-12
  25 |   0.617360E+00 |   0.189520E-06 |   0.117002E-06 |   0.379339E-05 |   0.248656E-04 |   0.100000E-12
  26 |   0.353638E+00 |   0.119731E-06 |   0.423414E-07 |   0.215135E-05 |   0.799773E-05 |   0.100000E-12
  27 |   0.509039E+00 |   0.154583E-07 |   0.786886E-08 |   0.106933E-05 |   0.197592E-05 |   0.100000E-12
  28 |   0.456316E+00 |   0.496185E-08 |   0.226417E-08 |   0.550956E-06 |   0.524539E-06 |   0.100000E-12
  29 |   0.163572E+00 |   0.106074E-07 |   0.173507E-08 |   0.388996E-06 |   0.261477E-06 |   0.100000E-12
  30 |   0.434392E+00 |   0.897238E-09 |   0.389753E-09 |   0.227573E-06 |   0.894925E-07 |   0.100000E-12
  31 |   0.574750E+00 |   0.256486E-09 |   0.147415E-09 |   0.176749E-06 |   0.539828E-07 |   0.100000E-12
  32 |   0.369877E+00 |   0.318902E-09 |   0.117954E-09 |   0.169096E-06 |   0.494094E-07 |   0.100000E-12
  33 |   0.104350E+01 |   0.413669E-10 |   0.431664E-10 |   0.951428E-07 |   0.156421E-07 |   0.100000E-12
  34 |   0.476815E+00 |   0.474444E-10 |   0.226222E-10 |   0.605568E-07 |   0.633680E-08 |   0.100000E-12
  35 |   0.519607E+00 |   0.170743E-10 |   0.887192E-11 |   0.355676E-07 |   0.218602E-08 |   0.100000E-12
  36 |   0.541279E+00 |   0.507320E-11 |   0.274601E-11 |   0.238153E-07 |   0.980065E-09 |   0.100000E-12
  37 |   0.642225E+00 |   0.132267E-11 |   0.849451E-12 |   0.100686E-07 |   0.175177E-09 |   0.100000E-12
  38 |   0.236201E+00 |   0.246893E-11 |   0.583165E-12 |   0.580276E-08 |   0.581852E-10 |   0.100000E-12
  39 |   0.266203E+00 |   0.719389E-12 |   0.191503E-12 |   0.363224E-08 |   0.227978E-10 |   0.100000E-12
  40 |   0.265313E+00 |   0.279385E-12 |   0.741246E-13 |   0.242315E-08 |   0.101462E-10 |   0.100000E-12
  41 |   0.711809E+00 |   0.121392E-13 |   0.864081E-14 |   0.121585E-08 |   0.255448E-11 |   0.100000E-12
  42 |   0.521500E+00 |   0.762265E-14 |   0.397521E-14 |   0.816529E-09 |   0.115209E-11 |   0.100000E-12
  43 |   0.239032E+00 |   0.151247E-13 |   0.361528E-14 |   0.766189E-09 |   0.101442E-11 |   0.100000E-12
  44 |   0.463004E+00 |   0.430541E-14 |   0.199342E-14 |   0.576924E-09 |   0.575149E-12 |   0.100000E-12
  45 |   0.745552E+00 |   0.763217E-15 |   0.569018E-15 |   0.392794E-09 |   0.266608E-12 |   0.100000E-12
  46 |   0.533845E+00 |   0.911297E-15 |   0.486491E-15 |   0.371781E-09 |   0.238847E-12 |   0.100000E-12
  47 |   0.944255E+00 |   0.366032E-15 |   0.345628E-15 |   0.377394E-09 |   0.246112E-12 |   0.100000E-12
  48 |   0.370993E+00 |   0.991892E-15 |   0.367985E-15 |   0.379709E-09 |   0.249142E-12 |   0.100000E-12
  49 |   0.359996E+00 |   0.131330E-14 |   0.472783E-15 |   0.272181E-09 |   0.128014E-12 |   0.100000E-12
  50 |   0.835549E+00 |   0.138747E-15 |   0.115930E-15 |   0.129402E-09 |   0.289353E-13 |   0.100000E-12

 Charges are converged, EXIT

%%%% DENSITY %%%%%%%%%%%%%%%%%%%%%%%%%%%%%%%%%%%%%%%%%%%%%%%%%%%%%%%%%%%%%%%%%%%

 density label              = velectrostatic                                    

 integral of density        =   0.1129631368E-12

%%%% CHARGES %%%%%%%%%%%%%%%%%%%%%%%%%%%%%%%%%%%%%%%%%%%%%%%%%%%%%%%%%%%%%%%%%%%

 total number of charges    =             11

 total charge               =     -0.0000000

%%%% DENSITY %%%%%%%%%%%%%%%%%%%%%%%%%%%%%%%%%%%%%%%%%%%%%%%%%%%%%%%%%%%%%%%%%%%

 density label              = vsoftcavity                                       

 integral of density        =    16.17366416    

%%%% DENSITY %%%%%%%%%%%%%%%%%%%%%%%%%%%%%%%%%%%%%%%%%%%%%%%%%%%%%%%%%%%%%%%%%%%

 density label              = dvtot                                             

 integral of density        =    16.17366416    

%%%% ELECTRONS %%%%%%%%%%%%%%%%%%%%%%%%%%%%%%%%%%%%%%%%%%%%%%%%%%%%%%%%%%%%%%%%%

 number of electrons        =              8

 total electronic charge    =      8.0000000

%%%% ELECTRONS %%%%%%%%%%%%%%%%%%%%%%%%%%%%%%%%%%%%%%%%%%%%%%%%%%%%%%%%%%%%%%%%%

 number of electrons        =              8

 total electronic charge    =      8.0000000

%%%% CHARGES %%%%%%%%%%%%%%%%%%%%%%%%%%%%%%%%%%%%%%%%%%%%%%%%%%%%%%%%%%%%%%%%%%%

 total number of charges    =             11

 total charge               =     -0.0000000

%%%% CHARGES %%%%%%%%%%%%%%%%%%%%%%%%%%%%%%%%%%%%%%%%%%%%%%%%%%%%%%%%%%%%%%%%%%%

 total number of charges    =             11

 total charge               =     -0.0000000

%%%% BOUNDARY %%%%%%%%%%%%%%%%%%%%%%%%%%%%%%%%%%%%%%%%%%%%%%%%%%%%%%%%%%%%%%%%%%

 boundary label             = solvent             
 boundary mode              = electronic          

 using the optimal SCCS function:
 rhomax                     =      0.0050000
 rhomin                     =      0.0001000

 volume of the QM region    =    237.5987510

 surface of the QM region   =    184.5358430

%%%% DENSITY %%%%%%%%%%%%%%%%%%%%%%%%%%%%%%%%%%%%%%%%%%%%%%%%%%%%%%%%%%%%%%%%%%%

 density label              = vreference                                        

 integral of density        =  -0.1500034664E-13

%%%% COMPUTE ELECTROSTATIC POTENTIAL %%%%%%%%%%%%%%%%%%%%%%%%%%%%%%%%%%%%%%%%%%%

 Warning: Bad guess with residual norm =   0.210898E+03, reset to no guess

   i |      alpha     |       pAp      |      rzold     |    delta_qm    |    delta_en    |       tol
 ---------------------------------------------------------------------------------------------------------
   1 |   0.984805E+00 |   0.292522E+02 |   0.288077E+02 |   0.108969E-01 |   0.205187E+03 |   0.100000E-12
   2 |   0.114090E+00 |   0.259948E+02 |   0.296575E+01 |   0.261211E-02 |   0.117904E+02 |   0.100000E-12
   3 |   0.162636E+00 |   0.111915E+01 |   0.182014E+00 |   0.761125E-03 |   0.100105E+01 |   0.100000E-12
   4 |   0.134929E+00 |   0.121600E+00 |   0.164074E-01 |   0.523654E-03 |   0.473841E+00 |   0.100000E-12
   5 |   0.291142E+00 |   0.515538E-02 |   0.150095E-02 |   0.322079E-03 |   0.179254E+00 |   0.100000E-12
   6 |   0.400903E+00 |   0.133821E-02 |   0.536492E-03 |   0.250348E-03 |   0.108301E+00 |   0.100000E-12
   7 |   0.318900E+00 |   0.791508E-03 |   0.252412E-03 |   0.273537E-03 |   0.129294E+00 |   0.100000E-12
   8 |   0.184651E+01 |   0.492835E-04 |   0.910025E-04 |   0.243103E-03 |   0.102124E+00 |   0.100000E-12
   9 |   0.698162E+00 |   0.478835E-03 |   0.334305E-03 |   0.221060E-03 |   0.844430E-01 |   0.100000E-12
  10 |   0.274914E+00 |   0.742353E-03 |   0.204083E-03 |   0.190701E-03 |   0.628417E-01 |   0.100000E-12
  11 |   0.274266E+00 |   0.255866E-03 |   0.701755E-04 |   0.155832E-03 |   0.419619E-01 |   0.100000E-12
  12 |   0.358954E+00 |   0.143993E-03 |   0.516867E-04 |   0.117078E-03 |   0.236860E-01 |   0.100000E-12
  13 |   0.617498E+00 |   0.490337E-04 |   0.302782E-04 |   0.100739E-03 |   0.175363E-01 |   0.100000E-12
  14 |   0.591641E+00 |   0.611683E-04 |   0.361897E-04 |   0.112698E-03 |   0.219469E-01 |   0.100000E-12
  15 |   0.573132E+00 |   0.551130E-04 |   0.315870E-04 |   0.822440E-04 |   0.116883E-01 |   0.100000E-12
  16 |   0.423493E+00 |   0.843582E-04 |   0.357251E-04 |   0.665399E-04 |   0.765081E-02 |   0.100000E-12
  17 |   0.311369E+00 |   0.398199E-04 |   0.123987E-04 |   0.661495E-04 |   0.756131E-02 |   0.100000E-12
  18 |   0.454168E+00 |   0.174606E-04 |   0.793003E-05 |   0.618422E-04 |   0.660867E-02 |   0.100000E-12
  19 |   0.905238E+00 |   0.176072E-04 |   0.159387E-04 |   0.824934E-04 |   0.117593E-01 |   0.100000E-12
  20 |   0.760287E+00 |   0.314432E-04 |   0.239059E-04 |   0.821561E-04 |   0.116634E-01 |   0.100000E-12
  21 |   0.508813E+00 |   0.349834E-04 |   0.178000E-04 |   0.694880E-04 |   0.834379E-02 |   0.100000E-12
  22 |   0.736534E+00 |   0.831378E-05 |   0.612338E-05 |   0.418957E-04 |   0.303308E-02 |   0.100000E-12
  23 |   0.736610E+00 |   0.469176E-05 |   0.345600E-05 |   0.338053E-04 |   0.197475E-02 |   0.100000E-12
  24 |   0.528533E+00 |   0.427249E-05 |   0.225815E-05 |   0.245388E-04 |   0.104052E-02 |   0.100000E-12
  25 |   0.451492E+00 |   0.312961E-05 |   0.141299E-05 |   0.148869E-04 |   0.382958E-03 |   0.100000E-12
  26 |   0.419685E+00 |   0.702277E-06 |   0.294735E-06 |   0.883738E-05 |   0.134956E-03 |   0.100000E-12
  27 |   0.283551E+00 |   0.401437E-06 |   0.113828E-06 |   0.642330E-05 |   0.712952E-04 |   0.100000E-12
  28 |   0.183348E+00 |   0.492102E-06 |   0.902260E-07 |   0.402599E-05 |   0.280084E-04 |   0.100000E-12
  29 |   0.475672E+00 |   0.440054E-07 |   0.209322E-07 |   0.201123E-05 |   0.698982E-05 |   0.100000E-12
  30 |   0.514778E+00 |   0.102465E-07 |   0.527467E-08 |   0.935526E-06 |   0.151236E-05 |   0.100000E-12
  31 |   0.499607E+00 |   0.341290E-08 |   0.170511E-08 |   0.583414E-06 |   0.588163E-06 |   0.100000E-12
  32 |   0.407259E+00 |   0.167169E-08 |   0.680812E-09 |   0.486043E-06 |   0.408219E-06 |   0.100000E-12
  33 |   0.544204E+00 |   0.851757E-09 |   0.463529E-09 |   0.364483E-06 |   0.229561E-06 |   0.100000E-12
  34 |   0.811031E+00 |   0.183677E-09 |   0.148967E-09 |   0.191140E-06 |   0.631318E-07 |   0.100000E-12
  35 |   0.494458E+00 |   0.178732E-09 |   0.883753E-10 |   0.153860E-06 |   0.409065E-07 |   0.100000E-12
  36 |   0.330992E+00 |   0.128853E-09 |   0.426491E-10 |   0.129233E-06 |   0.288598E-07 |   0.100000E-12
  37 |   0.292133E+00 |   0.149140E-09 |   0.435686E-10 |   0.108123E-06 |   0.202014E-07 |   0.100000E-12
  38 |   0.816558E+00 |   0.178036E-10 |   0.145377E-10 |   0.421288E-07 |   0.306692E-08 |   0.100000E-12
  39 |   0.433534E+00 |   0.957209E-11 |   0.414982E-11 |   0.271833E-07 |   0.127687E-08 |   0.100000E-12
  40 |   0.293517E+00 |   0.423243E-11 |   0.124229E-11 |   0.188004E-07 |   0.610772E-09 |   0.100000E-12
  41 |   0.473891E+00 |   0.678741E-12 |   0.321649E-12 |   0.981503E-08 |   0.166467E-09 |   0.100000E-12
  42 |   0.275312E+00 |   0.511597E-12 |   0.140849E-12 |   0.554828E-08 |   0.531937E-10 |   0.100000E-12
  43 |   0.310227E+00 |   0.358004E-12 |   0.111062E-12 |   0.505914E-08 |   0.442279E-10 |   0.100000E-12
  44 |   0.590184E+00 |   0.809702E-13 |   0.477873E-13 |   0.512206E-08 |   0.453349E-10 |   0.100000E-12
  45 |   0.821017E+00 |   0.417795E-13 |   0.343017E-13 |   0.525121E-08 |   0.476500E-10 |   0.100000E-12
  46 |   0.862988E+00 |   0.394676E-13 |   0.340601E-13 |   0.447830E-08 |   0.346553E-10 |   0.100000E-12
  47 |   0.578418E+00 |   0.639959E-13 |   0.370164E-13 |   0.342310E-08 |   0.202481E-10 |   0.100000E-12
  48 |   0.483861E+00 |   0.497974E-13 |   0.240951E-13 |   0.240919E-08 |   0.100296E-10 |   0.100000E-12
  49 |   0.191162E+00 |   0.778980E-13 |   0.148912E-13 |   0.187460E-08 |   0.607238E-11 |   0.100000E-12
  50 |   0.301775E+00 |   0.231579E-13 |   0.698848E-14 |   0.134906E-08 |   0.314491E-11 |   0.100000E-12
  51 |   0.226065E+00 |   0.120273E-13 |   0.271896E-14 |   0.100461E-08 |   0.174396E-11 |   0.100000E-12
  52 |   0.383684E+00 |   0.490885E-14 |   0.188345E-14 |   0.577155E-09 |   0.575610E-12 |   0.100000E-12
  53 |   0.737659E+00 |   0.501967E-15 |   0.370281E-15 |   0.286435E-09 |   0.141774E-12 |   0.100000E-12
  54 |   0.386539E+00 |   0.344521E-15 |   0.133171E-15 |   0.205957E-09 |   0.732988E-13 |   0.100000E-12

 Charges are converged, EXIT

%%%% DENSITY %%%%%%%%%%%%%%%%%%%%%%%%%%%%%%%%%%%%%%%%%%%%%%%%%%%%%%%%%%%%%%%%%%%

 density label              = velectrostatic                                    

 integral of density        =  -0.1009891759E-12

%%%% CHARGES %%%%%%%%%%%%%%%%%%%%%%%%%%%%%%%%%%%%%%%%%%%%%%%%%%%%%%%%%%%%%%%%%%%

 total number of charges    =             11

 total charge               =     -0.0000000

%%%% DENSITY %%%%%%%%%%%%%%%%%%%%%%%%%%%%%%%%%%%%%%%%%%%%%%%%%%%%%%%%%%%%%%%%%%%

 density label              = vsoftcavity                                       

 integral of density        =    11.70261768    

%%%% DENSITY %%%%%%%%%%%%%%%%%%%%%%%%%%%%%%%%%%%%%%%%%%%%%%%%%%%%%%%%%%%%%%%%%%%

 density label              = dvtot                                             

 integral of density        =    11.70261768    

%%%% ELECTRONS %%%%%%%%%%%%%%%%%%%%%%%%%%%%%%%%%%%%%%%%%%%%%%%%%%%%%%%%%%%%%%%%%

 number of electrons        =              8

 total electronic charge    =      8.0000000

%%%% ELECTRONS %%%%%%%%%%%%%%%%%%%%%%%%%%%%%%%%%%%%%%%%%%%%%%%%%%%%%%%%%%%%%%%%%

 number of electrons        =              8

 total electronic charge    =      8.0000000

%%%% CHARGES %%%%%%%%%%%%%%%%%%%%%%%%%%%%%%%%%%%%%%%%%%%%%%%%%%%%%%%%%%%%%%%%%%%

 total number of charges    =             11

 total charge               =      0.0000000

%%%% CHARGES %%%%%%%%%%%%%%%%%%%%%%%%%%%%%%%%%%%%%%%%%%%%%%%%%%%%%%%%%%%%%%%%%%%

 total number of charges    =             11

 total charge               =      0.0000000

%%%% BOUNDARY %%%%%%%%%%%%%%%%%%%%%%%%%%%%%%%%%%%%%%%%%%%%%%%%%%%%%%%%%%%%%%%%%%

 boundary label             = solvent             
 boundary mode              = electronic          

 using the optimal SCCS function:
 rhomax                     =      0.0050000
 rhomin                     =      0.0001000

 volume of the QM region    =    226.9897040

 surface of the QM region   =    179.2007255

%%%% DENSITY %%%%%%%%%%%%%%%%%%%%%%%%%%%%%%%%%%%%%%%%%%%%%%%%%%%%%%%%%%%%%%%%%%%

 density label              = vreference                                        

 integral of density        =  -0.4263256415E-13

%%%% COMPUTE ELECTROSTATIC POTENTIAL %%%%%%%%%%%%%%%%%%%%%%%%%%%%%%%%%%%%%%%%%%%

 Warning: Bad guess with residual norm =   0.255428E+03, reset to no guess

   i |      alpha     |       pAp      |      rzold     |    delta_qm    |    delta_en    |       tol
 ---------------------------------------------------------------------------------------------------------
   1 |   0.984372E+00 |   0.289414E+02 |   0.284891E+02 |   0.119844E-01 |   0.248186E+03 |   0.100000E-12
   2 |   0.113923E+00 |   0.266205E+02 |   0.303269E+01 |   0.275921E-02 |   0.131557E+02 |   0.100000E-12
   3 |   0.147884E+00 |   0.133379E+01 |   0.197247E+00 |   0.875266E-03 |   0.132380E+01 |   0.100000E-12
   4 |   0.127910E+00 |   0.166436E+00 |   0.212889E-01 |   0.559495E-03 |   0.540924E+00 |   0.100000E-12
   5 |   0.287067E+00 |   0.563018E-02 |   0.161624E-02 |   0.352817E-03 |   0.215102E+00 |   0.100000E-12
   6 |   0.416045E+00 |   0.145909E-02 |   0.607045E-03 |   0.280977E-03 |   0.136423E+00 |   0.100000E-12
   7 |   0.315107E+00 |   0.839430E-03 |   0.264510E-03 |   0.304470E-03 |   0.160189E+00 |   0.100000E-12
   8 |   0.170051E+01 |   0.630548E-04 |   0.107226E-03 |   0.275503E-03 |   0.131159E+00 |   0.100000E-12
   9 |   0.711144E+00 |   0.541913E-03 |   0.385379E-03 |   0.245464E-03 |   0.104117E+00 |   0.100000E-12
  10 |   0.242704E+00 |   0.106105E-02 |   0.257521E-03 |   0.219553E-03 |   0.832959E-01 |   0.100000E-12
  11 |   0.244504E+00 |   0.475643E-03 |   0.116297E-03 |   0.186265E-03 |   0.599526E-01 |   0.100000E-12
  12 |   0.428308E+00 |   0.126201E-03 |   0.540530E-04 |   0.149025E-03 |   0.383762E-01 |   0.100000E-12
  13 |   0.657497E+00 |   0.616395E-04 |   0.405278E-04 |   0.123475E-03 |   0.263454E-01 |   0.100000E-12
  14 |   0.539560E+00 |   0.904236E-04 |   0.487889E-04 |   0.139913E-03 |   0.338266E-01 |   0.100000E-12
  15 |   0.646390E+00 |   0.632136E-04 |   0.408606E-04 |   0.103379E-03 |   0.184675E-01 |   0.100000E-12
  16 |   0.389385E+00 |   0.134993E-03 |   0.525643E-04 |   0.874650E-04 |   0.132194E-01 |   0.100000E-12
  17 |   0.281905E+00 |   0.652702E-04 |   0.184000E-04 |   0.857243E-04 |   0.126985E-01 |   0.100000E-12
  18 |   0.458330E+00 |   0.304581E-04 |   0.139599E-04 |   0.786794E-04 |   0.106971E-01 |   0.100000E-12
  19 |   0.811233E+00 |   0.271874E-04 |   0.220553E-04 |   0.101667E-03 |   0.178611E-01 |   0.100000E-12
  20 |   0.898120E+00 |   0.349118E-04 |   0.313550E-04 |   0.973325E-04 |   0.163704E-01 |   0.100000E-12
  21 |   0.508225E+00 |   0.430948E-04 |   0.219019E-04 |   0.875354E-04 |   0.132407E-01 |   0.100000E-12
  22 |   0.570044E+00 |   0.174965E-04 |   0.997375E-05 |   0.580341E-04 |   0.581984E-02 |   0.100000E-12
  23 |   0.662136E+00 |   0.815088E-05 |   0.539699E-05 |   0.396840E-04 |   0.272129E-02 |   0.100000E-12
  24 |   0.464057E+00 |   0.865492E-05 |   0.401638E-05 |   0.299523E-04 |   0.155026E-02 |   0.100000E-12
  25 |   0.488356E+00 |   0.470553E-05 |   0.229797E-05 |   0.192842E-04 |   0.642608E-03 |   0.100000E-12
  26 |   0.537735E+00 |   0.899543E-06 |   0.483716E-06 |   0.112655E-04 |   0.219303E-03 |   0.100000E-12
  27 |   0.354239E+00 |   0.417369E-06 |   0.147848E-06 |   0.830570E-05 |   0.119206E-03 |   0.100000E-12
  28 |   0.162863E+00 |   0.843489E-06 |   0.137373E-06 |   0.570069E-05 |   0.561563E-04 |   0.100000E-12
  29 |   0.388747E+00 |   0.113253E-06 |   0.440266E-07 |   0.293199E-05 |   0.148549E-04 |   0.100000E-12
  30 |   0.539656E+00 |   0.177024E-07 |   0.955320E-08 |   0.111957E-05 |   0.216595E-05 |   0.100000E-12
  31 |   0.553741E+00 |   0.319475E-08 |   0.176906E-08 |   0.637497E-06 |   0.702263E-06 |   0.100000E-12
  32 |   0.449680E+00 |   0.203897E-08 |   0.916883E-09 |   0.497866E-06 |   0.428321E-06 |   0.100000E-12
  33 |   0.386379E+00 |   0.129804E-08 |   0.501538E-09 |   0.416653E-06 |   0.299981E-06 |   0.100000E-12
  34 |   0.686676E+00 |   0.298562E-09 |   0.205015E-09 |   0.240762E-06 |   0.100166E-06 |   0.100000E-12
  35 |   0.443592E+00 |   0.249247E-09 |   0.110564E-09 |   0.167912E-06 |   0.487201E-07 |   0.100000E-12
  36 |   0.209552E+00 |   0.612110E-09 |   0.128269E-09 |   0.153698E-06 |   0.408205E-07 |   0.100000E-12
  37 |   0.568708E+00 |   0.523466E-10 |   0.297699E-10 |   0.128352E-06 |   0.284677E-07 |   0.100000E-12
  38 |   0.751951E+00 |   0.306059E-10 |   0.230141E-10 |   0.708986E-07 |   0.868599E-08 |   0.100000E-12
  39 |   0.546276E+00 |   0.189319E-10 |   0.103420E-10 |   0.486163E-07 |   0.408420E-08 |   0.100000E-12
  40 |   0.217890E+00 |   0.159126E-10 |   0.346719E-11 |   0.352382E-07 |   0.214571E-08 |   0.100000E-12
  41 |   0.411420E+00 |   0.581037E-11 |   0.239051E-11 |   0.275645E-07 |   0.131294E-08 |   0.100000E-12
  42 |   0.841923E+00 |   0.122900E-11 |   0.103473E-11 |   0.264119E-07 |   0.120543E-08 |   0.100000E-12
  43 |   0.610884E+00 |   0.268430E-11 |   0.163980E-11 |   0.366977E-07 |   0.232714E-08 |   0.100000E-12
  44 |   0.636845E+00 |   0.217780E-11 |   0.138692E-11 |   0.336865E-07 |   0.196090E-08 |   0.100000E-12
  45 |   0.514441E+00 |   0.190245E-11 |   0.978696E-12 |   0.222376E-07 |   0.854516E-09 |   0.100000E-12
  46 |   0.377992E+00 |   0.154971E-11 |   0.585777E-12 |   0.131142E-07 |   0.297187E-09 |   0.100000E-12
  47 |   0.365351E+00 |   0.605412E-12 |   0.221188E-12 |   0.734894E-08 |   0.933241E-10 |   0.100000E-12
  48 |   0.195088E+00 |   0.803621E-12 |   0.156777E-12 |   0.451340E-08 |   0.352006E-10 |   0.100000E-12
  49 |   0.397697E+00 |   0.758179E-13 |   0.301525E-13 |   0.232453E-08 |   0.933714E-11 |   0.100000E-12
  50 |   0.233500E+00 |   0.385813E-13 |   0.900874E-14 |   0.154708E-08 |   0.413589E-11 |   0.100000E-12
  51 |   0.185076E+00 |   0.362268E-13 |   0.670471E-14 |   0.946917E-09 |   0.154941E-11 |   0.100000E-12
  52 |   0.451575E+00 |   0.274245E-14 |   0.123842E-14 |   0.576415E-09 |   0.574135E-12 |   0.100000E-12
  53 |   0.743159E+00 |   0.588111E-15 |   0.437060E-15 |   0.410474E-09 |   0.291149E-12 |   0.100000E-12
  54 |   0.922644E+00 |   0.134074E-15 |   0.123703E-15 |   0.187229E-09 |   0.605743E-13 |   0.100000E-12

 Charges are converged, EXIT

%%%% DENSITY %%%%%%%%%%%%%%%%%%%%%%%%%%%%%%%%%%%%%%%%%%%%%%%%%%%%%%%%%%%%%%%%%%%

 density label              = velectrostatic                                    

 integral of density        =   0.1016470858E-12

%%%% CHARGES %%%%%%%%%%%%%%%%%%%%%%%%%%%%%%%%%%%%%%%%%%%%%%%%%%%%%%%%%%%%%%%%%%%

 total number of charges    =             11

 total charge               =      0.0000000

%%%% DENSITY %%%%%%%%%%%%%%%%%%%%%%%%%%%%%%%%%%%%%%%%%%%%%%%%%%%%%%%%%%%%%%%%%%%

 density label              = vsoftcavity                                       

 integral of density        =    11.47392025    

%%%% DENSITY %%%%%%%%%%%%%%%%%%%%%%%%%%%%%%%%%%%%%%%%%%%%%%%%%%%%%%%%%%%%%%%%%%%

 density label              = dvtot                                             

 integral of density        =    11.47392025    

%%%% ELECTRONS %%%%%%%%%%%%%%%%%%%%%%%%%%%%%%%%%%%%%%%%%%%%%%%%%%%%%%%%%%%%%%%%%

 number of electrons        =              8

 total electronic charge    =      8.0000000

%%%% ELECTRONS %%%%%%%%%%%%%%%%%%%%%%%%%%%%%%%%%%%%%%%%%%%%%%%%%%%%%%%%%%%%%%%%%

 number of electrons        =              8

 total electronic charge    =      8.0000000

%%%% CHARGES %%%%%%%%%%%%%%%%%%%%%%%%%%%%%%%%%%%%%%%%%%%%%%%%%%%%%%%%%%%%%%%%%%%

 total number of charges    =             11

 total charge               =      0.0000000

%%%% CHARGES %%%%%%%%%%%%%%%%%%%%%%%%%%%%%%%%%%%%%%%%%%%%%%%%%%%%%%%%%%%%%%%%%%%

 total number of charges    =             11

 total charge               =      0.0000000

%%%% BOUNDARY %%%%%%%%%%%%%%%%%%%%%%%%%%%%%%%%%%%%%%%%%%%%%%%%%%%%%%%%%%%%%%%%%%

 boundary label             = solvent             
 boundary mode              = electronic          

 using the optimal SCCS function:
 rhomax                     =      0.0050000
 rhomin                     =      0.0001000

 volume of the QM region    =    229.5035101

 surface of the QM region   =    180.4534844

%%%% DENSITY %%%%%%%%%%%%%%%%%%%%%%%%%%%%%%%%%%%%%%%%%%%%%%%%%%%%%%%%%%%%%%%%%%%

 density label              = vreference                                        

 integral of density        =   0.1107920340E-12

%%%% COMPUTE ELECTROSTATIC POTENTIAL %%%%%%%%%%%%%%%%%%%%%%%%%%%%%%%%%%%%%%%%%%%

 Warning: Bad guess with residual norm =   0.235302E+03, reset to no guess

   i |      alpha     |       pAp      |      rzold     |    delta_qm    |    delta_en    |       tol
 ---------------------------------------------------------------------------------------------------------
   1 |   0.983773E+00 |   0.288709E+02 |   0.284024E+02 |   0.114982E-01 |   0.228457E+03 |   0.100000E-12
   2 |   0.115417E+00 |   0.267787E+02 |   0.309073E+01 |   0.268798E-02 |   0.124852E+02 |   0.100000E-12
   3 |   0.150992E+00 |   0.132459E+01 |   0.200002E+00 |   0.845713E-03 |   0.123592E+01 |   0.100000E-12
   4 |   0.127542E+00 |   0.167902E+00 |   0.214145E-01 |   0.548817E-03 |   0.520474E+00 |   0.100000E-12
   5 |   0.284969E+00 |   0.605713E-02 |   0.172609E-02 |   0.348175E-03 |   0.209478E+00 |   0.100000E-12
   6 |   0.416056E+00 |   0.150974E-02 |   0.628134E-03 |   0.273423E-03 |   0.129186E+00 |   0.100000E-12
   7 |   0.316500E+00 |   0.905127E-03 |   0.286473E-03 |   0.298794E-03 |   0.154272E+00 |   0.100000E-12
   8 |   0.168260E+01 |   0.667367E-04 |   0.112291E-03 |   0.269136E-03 |   0.125166E+00 |   0.100000E-12
   9 |   0.737086E+00 |   0.557258E-03 |   0.410747E-03 |   0.237348E-03 |   0.973451E-01 |   0.100000E-12
  10 |   0.238329E+00 |   0.104967E-02 |   0.250167E-03 |   0.210052E-03 |   0.762429E-01 |   0.100000E-12
  11 |   0.254335E+00 |   0.412913E-03 |   0.105018E-03 |   0.174816E-03 |   0.528087E-01 |   0.100000E-12
  12 |   0.434853E+00 |   0.134336E-03 |   0.584164E-04 |   0.136337E-03 |   0.321198E-01 |   0.100000E-12
  13 |   0.625041E+00 |   0.654500E-04 |   0.409089E-04 |   0.118721E-03 |   0.243557E-01 |   0.100000E-12
  14 |   0.568805E+00 |   0.853013E-04 |   0.485198E-04 |   0.130384E-03 |   0.293759E-01 |   0.100000E-12
  15 |   0.614786E+00 |   0.680842E-04 |   0.418572E-04 |   0.982642E-04 |   0.166853E-01 |   0.100000E-12
  16 |   0.408243E+00 |   0.123474E-03 |   0.504074E-04 |   0.840634E-04 |   0.122112E-01 |   0.100000E-12
  17 |   0.338300E+00 |   0.474720E-04 |   0.160598E-04 |   0.816773E-04 |   0.115278E-01 |   0.100000E-12
  18 |   0.495944E+00 |   0.262082E-04 |   0.129978E-04 |   0.764256E-04 |   0.100930E-01 |   0.100000E-12
  19 |   0.690742E+00 |   0.412602E-04 |   0.285001E-04 |   0.990345E-04 |   0.169479E-01 |   0.100000E-12
  20 |   0.786235E+00 |   0.434089E-04 |   0.341296E-04 |   0.921043E-04 |   0.146590E-01 |   0.100000E-12
  21 |   0.506876E+00 |   0.409808E-04 |   0.207722E-04 |   0.814961E-04 |   0.114767E-01 |   0.100000E-12
  22 |   0.614369E+00 |   0.154716E-04 |   0.950525E-05 |   0.537019E-04 |   0.498337E-02 |   0.100000E-12
  23 |   0.678576E+00 |   0.833243E-05 |   0.565419E-05 |   0.389010E-04 |   0.261496E-02 |   0.100000E-12
  24 |   0.455269E+00 |   0.869739E-05 |   0.395965E-05 |   0.295148E-04 |   0.150531E-02 |   0.100000E-12
  25 |   0.486550E+00 |   0.471213E-05 |   0.229269E-05 |   0.182957E-04 |   0.578417E-03 |   0.100000E-12
  26 |   0.375983E+00 |   0.121013E-05 |   0.454990E-06 |   0.117321E-04 |   0.237844E-03 |   0.100000E-12
  27 |   0.157283E+00 |   0.310970E-05 |   0.489105E-06 |   0.908940E-05 |   0.142762E-03 |   0.100000E-12
  28 |   0.420478E+00 |   0.256230E-06 |   0.107739E-06 |   0.499049E-05 |   0.430357E-04 |   0.100000E-12
  29 |   0.467805E+00 |   0.744127E-07 |   0.348107E-07 |   0.250578E-05 |   0.108500E-04 |   0.100000E-12
  30 |   0.564989E+00 |   0.143692E-07 |   0.811843E-08 |   0.102408E-05 |   0.181223E-05 |   0.100000E-12
  31 |   0.574917E+00 |   0.287353E-08 |   0.165204E-08 |   0.606607E-06 |   0.635855E-06 |   0.100000E-12
  32 |   0.547766E+00 |   0.135647E-08 |   0.743029E-09 |   0.460316E-06 |   0.366147E-06 |   0.100000E-12
  33 |   0.409494E+00 |   0.767119E-09 |   0.314131E-09 |   0.347905E-06 |   0.209153E-06 |   0.100000E-12
  34 |   0.483613E+00 |   0.450371E-09 |   0.217805E-09 |   0.203660E-06 |   0.716732E-07 |   0.100000E-12
  35 |   0.271082E+00 |   0.438763E-09 |   0.118941E-09 |   0.158788E-06 |   0.435692E-07 |   0.100000E-12
  36 |   0.329028E+00 |   0.290023E-09 |   0.954257E-10 |   0.140961E-06 |   0.343355E-07 |   0.100000E-12
  37 |   0.563936E+00 |   0.492876E-10 |   0.277951E-10 |   0.121745E-06 |   0.256122E-07 |   0.100000E-12
  38 |   0.940103E+00 |   0.228516E-10 |   0.214829E-10 |   0.638941E-07 |   0.705448E-08 |   0.100000E-12
  39 |   0.588098E+00 |   0.139828E-10 |   0.822326E-11 |   0.429501E-07 |   0.318766E-08 |   0.100000E-12
  40 |   0.706965E+00 |   0.279907E-11 |   0.197884E-11 |   0.290381E-07 |   0.145707E-08 |   0.100000E-12
  41 |   0.892903E+00 |   0.167196E-11 |   0.149290E-11 |   0.348996E-07 |   0.210468E-08 |   0.100000E-12
  42 |   0.264687E+00 |   0.122650E-10 |   0.324639E-11 |   0.374026E-07 |   0.241739E-08 |   0.100000E-12
  43 |   0.481069E+00 |   0.527545E-11 |   0.253785E-11 |   0.410839E-07 |   0.291668E-08 |   0.100000E-12
  44 |   0.517159E+00 |   0.317783E-11 |   0.164344E-11 |   0.290482E-07 |   0.145808E-08 |   0.100000E-12
  45 |   0.449397E+00 |   0.211222E-11 |   0.949226E-12 |   0.161445E-07 |   0.450395E-09 |   0.100000E-12
  46 |   0.385566E+00 |   0.998771E-12 |   0.385093E-12 |   0.896254E-08 |   0.138805E-09 |   0.100000E-12
  47 |   0.305286E+00 |   0.504874E-12 |   0.154131E-12 |   0.537653E-08 |   0.499514E-10 |   0.100000E-12
  48 |   0.177836E+00 |   0.487383E-12 |   0.866741E-13 |   0.363141E-08 |   0.227873E-10 |   0.100000E-12
  49 |   0.273904E+00 |   0.833504E-13 |   0.228300E-13 |   0.217741E-08 |   0.819263E-11 |   0.100000E-12
  50 |   0.176928E+00 |   0.835095E-13 |   0.147752E-13 |   0.129877E-08 |   0.291480E-11 |   0.100000E-12
  51 |   0.345581E+00 |   0.790936E-14 |   0.273332E-14 |   0.720634E-09 |   0.897373E-12 |   0.100000E-12
  52 |   0.433257E+00 |   0.195449E-14 |   0.846796E-15 |   0.453791E-09 |   0.355841E-12 |   0.100000E-12
  53 |   0.736054E+00 |   0.382846E-15 |   0.281796E-15 |   0.313346E-09 |   0.169665E-12 |   0.100000E-12
  54 |   0.825285E+00 |   0.993943E-16 |   0.820286E-16 |   0.151725E-09 |   0.397794E-13 |   0.100000E-12

 Charges are converged, EXIT

%%%% DENSITY %%%%%%%%%%%%%%%%%%%%%%%%%%%%%%%%%%%%%%%%%%%%%%%%%%%%%%%%%%%%%%%%%%%

 density label              = velectrostatic                                    

 integral of density        =   0.1309898692E-12

%%%% CHARGES %%%%%%%%%%%%%%%%%%%%%%%%%%%%%%%%%%%%%%%%%%%%%%%%%%%%%%%%%%%%%%%%%%%

 total number of charges    =             11

 total charge               =      0.0000000

%%%% DENSITY %%%%%%%%%%%%%%%%%%%%%%%%%%%%%%%%%%%%%%%%%%%%%%%%%%%%%%%%%%%%%%%%%%%

 density label              = vsoftcavity                                       

 integral of density        =    12.18565864    

%%%% DENSITY %%%%%%%%%%%%%%%%%%%%%%%%%%%%%%%%%%%%%%%%%%%%%%%%%%%%%%%%%%%%%%%%%%%

 density label              = dvtot                                             

 integral of density        =    12.18565864    

%%%% ELECTRONS %%%%%%%%%%%%%%%%%%%%%%%%%%%%%%%%%%%%%%%%%%%%%%%%%%%%%%%%%%%%%%%%%

 number of electrons        =              8

 total electronic charge    =      8.0000000

%%%% ELECTRONS %%%%%%%%%%%%%%%%%%%%%%%%%%%%%%%%%%%%%%%%%%%%%%%%%%%%%%%%%%%%%%%%%

 number of electrons        =              8

 total electronic charge    =      8.0000000

%%%% CHARGES %%%%%%%%%%%%%%%%%%%%%%%%%%%%%%%%%%%%%%%%%%%%%%%%%%%%%%%%%%%%%%%%%%%

 total number of charges    =             11

 total charge               =     -0.0000000

%%%% CHARGES %%%%%%%%%%%%%%%%%%%%%%%%%%%%%%%%%%%%%%%%%%%%%%%%%%%%%%%%%%%%%%%%%%%

 total number of charges    =             11

 total charge               =     -0.0000000

%%%% BOUNDARY %%%%%%%%%%%%%%%%%%%%%%%%%%%%%%%%%%%%%%%%%%%%%%%%%%%%%%%%%%%%%%%%%%

 boundary label             = solvent             
 boundary mode              = electronic          

 using the optimal SCCS function:
 rhomax                     =      0.0050000
 rhomin                     =      0.0001000

 volume of the QM region    =    229.9272725

 surface of the QM region   =    180.6857351

%%%% DENSITY %%%%%%%%%%%%%%%%%%%%%%%%%%%%%%%%%%%%%%%%%%%%%%%%%%%%%%%%%%%%%%%%%%%

 density label              = vreference                                        

 integral of density        =  -0.1868464231E-12

%%%% COMPUTE ELECTROSTATIC POTENTIAL %%%%%%%%%%%%%%%%%%%%%%%%%%%%%%%%%%%%%%%%%%%

 Warning: Bad guess with residual norm =   0.246886E+03, reset to no guess

   i |      alpha     |       pAp      |      rzold     |    delta_qm    |    delta_en    |       tol
 ---------------------------------------------------------------------------------------------------------
   1 |   0.983756E+00 |   0.289221E+02 |   0.284523E+02 |   0.117767E-01 |   0.239659E+03 |   0.100000E-12
   2 |   0.116131E+00 |   0.265590E+02 |   0.308432E+01 |   0.269112E-02 |   0.125144E+02 |   0.100000E-12
   3 |   0.149712E+00 |   0.132644E+01 |   0.198584E+00 |   0.857405E-03 |   0.127033E+01 |   0.100000E-12
   4 |   0.124836E+00 |   0.175559E+00 |   0.219160E-01 |   0.562022E-03 |   0.545822E+00 |   0.100000E-12
   5 |   0.281877E+00 |   0.629854E-02 |   0.177542E-02 |   0.359393E-03 |   0.223194E+00 |   0.100000E-12
   6 |   0.418844E+00 |   0.155967E-02 |   0.653258E-03 |   0.285698E-03 |   0.141045E+00 |   0.100000E-12
   7 |   0.318922E+00 |   0.931275E-03 |   0.297004E-03 |   0.313266E-03 |   0.169578E+00 |   0.100000E-12
   8 |   0.169513E+01 |   0.708031E-04 |   0.120020E-03 |   0.282179E-03 |   0.137592E+00 |   0.100000E-12
   9 |   0.723702E+00 |   0.623554E-03 |   0.451268E-03 |   0.251545E-03 |   0.109339E+00 |   0.100000E-12
  10 |   0.221342E+00 |   0.124977E-02 |   0.276626E-03 |   0.226320E-03 |   0.885091E-01 |   0.100000E-12
  11 |   0.264631E+00 |   0.436618E-03 |   0.115543E-03 |   0.188947E-03 |   0.616913E-01 |   0.100000E-12
  12 |   0.461641E+00 |   0.136885E-03 |   0.631918E-04 |   0.148058E-03 |   0.378799E-01 |   0.100000E-12
  13 |   0.613993E+00 |   0.780963E-04 |   0.479506E-04 |   0.130900E-03 |   0.296089E-01 |   0.100000E-12
  14 |   0.585598E+00 |   0.930268E-04 |   0.544763E-04 |   0.141175E-03 |   0.344395E-01 |   0.100000E-12
  15 |   0.606046E+00 |   0.830176E-04 |   0.503125E-04 |   0.107867E-03 |   0.201058E-01 |   0.100000E-12
  16 |   0.407470E+00 |   0.143214E-03 |   0.583553E-04 |   0.951059E-04 |   0.156300E-01 |   0.100000E-12
  17 |   0.406282E+00 |   0.420149E-04 |   0.170699E-04 |   0.902482E-04 |   0.140741E-01 |   0.100000E-12
  18 |   0.728980E+00 |   0.202647E-04 |   0.147726E-04 |   0.874511E-04 |   0.132152E-01 |   0.100000E-12
  19 |   0.416646E+00 |   0.114585E-03 |   0.477415E-04 |   0.108865E-03 |   0.204797E-01 |   0.100000E-12
  20 |   0.694283E+00 |   0.627613E-04 |   0.435741E-04 |   0.102228E-03 |   0.180584E-01 |   0.100000E-12
  21 |   0.536502E+00 |   0.412451E-04 |   0.221281E-04 |   0.895663E-04 |   0.138622E-01 |   0.100000E-12
  22 |   0.581716E+00 |   0.198732E-04 |   0.115605E-04 |   0.607136E-04 |   0.636964E-02 |   0.100000E-12
  23 |   0.662413E+00 |   0.107327E-04 |   0.710947E-05 |   0.438409E-04 |   0.332126E-02 |   0.100000E-12
  24 |   0.449094E+00 |   0.113959E-04 |   0.511781E-05 |   0.334823E-04 |   0.193720E-02 |   0.100000E-12
  25 |   0.499132E+00 |   0.560147E-05 |   0.279588E-05 |   0.200568E-04 |   0.695131E-03 |   0.100000E-12
  26 |   0.511422E+00 |   0.101762E-05 |   0.520433E-06 |   0.124477E-04 |   0.267747E-03 |   0.100000E-12
  27 |   0.188205E+00 |   0.133860E-05 |   0.251931E-06 |   0.914816E-05 |   0.144614E-03 |   0.100000E-12
  28 |   0.286766E+00 |   0.612445E-06 |   0.175629E-06 |   0.544402E-05 |   0.512134E-04 |   0.100000E-12
  29 |   0.431845E+00 |   0.101662E-06 |   0.439021E-07 |   0.284018E-05 |   0.139391E-04 |   0.100000E-12
  30 |   0.548612E+00 |   0.201410E-07 |   0.110496E-07 |   0.123739E-05 |   0.264581E-05 |   0.100000E-12
  31 |   0.642945E+00 |   0.328215E-08 |   0.211024E-08 |   0.704607E-06 |   0.857902E-06 |   0.100000E-12
  32 |   0.547829E+00 |   0.171605E-08 |   0.940104E-09 |   0.531181E-06 |   0.487562E-06 |   0.100000E-12
  33 |   0.667463E+00 |   0.437900E-09 |   0.292282E-09 |   0.309989E-06 |   0.166049E-06 |   0.100000E-12
  34 |   0.357410E+00 |   0.574399E-09 |   0.205296E-09 |   0.194365E-06 |   0.652797E-07 |   0.100000E-12
  35 |   0.297650E+00 |   0.425912E-09 |   0.126772E-09 |   0.149681E-06 |   0.387150E-07 |   0.100000E-12
  36 |   0.257907E+00 |   0.325087E-09 |   0.838424E-10 |   0.145262E-06 |   0.364626E-07 |   0.100000E-12
  37 |   0.530955E+00 |   0.520293E-10 |   0.276252E-10 |   0.118155E-06 |   0.241237E-07 |   0.100000E-12
  38 |   0.749097E+00 |   0.331103E-10 |   0.248028E-10 |   0.602867E-07 |   0.628040E-08 |   0.100000E-12
  39 |   0.508057E+00 |   0.152619E-10 |   0.775389E-11 |   0.366627E-07 |   0.232270E-08 |   0.100000E-12
  40 |   0.163425E+00 |   0.170555E-10 |   0.278728E-11 |   0.280539E-07 |   0.135997E-08 |   0.100000E-12
  41 |   0.403276E+00 |   0.221728E-11 |   0.894175E-12 |   0.165932E-07 |   0.475775E-09 |   0.100000E-12
  42 |   0.617040E+00 |   0.373617E-12 |   0.230536E-12 |   0.817483E-08 |   0.115478E-09 |   0.100000E-12
  43 |   0.397534E+00 |   0.457585E-12 |   0.181906E-12 |   0.807769E-08 |   0.112750E-09 |   0.100000E-12
  44 |   0.765638E+00 |   0.138373E-12 |   0.105944E-12 |   0.985355E-08 |   0.167776E-09 |   0.100000E-12
  45 |   0.845341E+00 |   0.127969E-12 |   0.108177E-12 |   0.978739E-08 |   0.165530E-09 |   0.100000E-12
  46 |   0.705070E+00 |   0.175034E-12 |   0.123411E-12 |   0.760374E-08 |   0.999076E-10 |   0.100000E-12
  47 |   0.462987E+00 |   0.208568E-12 |   0.965643E-13 |   0.499158E-08 |   0.430546E-10 |   0.100000E-12
  48 |   0.266494E+00 |   0.145139E-12 |   0.386788E-13 |   0.353634E-08 |   0.216099E-10 |   0.100000E-12
  49 |   0.189484E+00 |   0.184580E-12 |   0.349750E-13 |   0.198433E-08 |   0.680411E-11 |   0.100000E-12
  50 |   0.275425E+00 |   0.219822E-13 |   0.605447E-14 |   0.122997E-08 |   0.261418E-11 |   0.100000E-12
  51 |   0.208815E+00 |   0.134142E-13 |   0.280109E-14 |   0.777504E-09 |   0.104460E-11 |   0.100000E-12
  52 |   0.337967E+00 |   0.264923E-14 |   0.895352E-15 |   0.432357E-09 |   0.323019E-12 |   0.100000E-12
  53 |   0.585925E+00 |   0.387382E-15 |   0.226977E-15 |   0.240667E-09 |   0.100087E-12 |   0.100000E-12
  54 |   0.907476E+00 |   0.519082E-16 |   0.471055E-16 |   0.109644E-09 |   0.207737E-13 |   0.100000E-12

 Charges are converged, EXIT

%%%% DENSITY %%%%%%%%%%%%%%%%%%%%%%%%%%%%%%%%%%%%%%%%%%%%%%%%%%%%%%%%%%%%%%%%%%%

 density label              = velectrostatic                                    

 integral of density        =  -0.1584247137E-12

%%%% CHARGES %%%%%%%%%%%%%%%%%%%%%%%%%%%%%%%%%%%%%%%%%%%%%%%%%%%%%%%%%%%%%%%%%%%

 total number of charges    =             11

 total charge               =     -0.0000000

%%%% DENSITY %%%%%%%%%%%%%%%%%%%%%%%%%%%%%%%%%%%%%%%%%%%%%%%%%%%%%%%%%%%%%%%%%%%

 density label              = vsoftcavity                                       

 integral of density        =    12.20956651    

%%%% DENSITY %%%%%%%%%%%%%%%%%%%%%%%%%%%%%%%%%%%%%%%%%%%%%%%%%%%%%%%%%%%%%%%%%%%

 density label              = dvtot                                             

 integral of density        =    12.20956651    

%%%% ELECTRONS %%%%%%%%%%%%%%%%%%%%%%%%%%%%%%%%%%%%%%%%%%%%%%%%%%%%%%%%%%%%%%%%%

 number of electrons        =              8

 total electronic charge    =      8.0000000

%%%% ELECTRONS %%%%%%%%%%%%%%%%%%%%%%%%%%%%%%%%%%%%%%%%%%%%%%%%%%%%%%%%%%%%%%%%%

 number of electrons        =              8

 total electronic charge    =      8.0000000

%%%% CHARGES %%%%%%%%%%%%%%%%%%%%%%%%%%%%%%%%%%%%%%%%%%%%%%%%%%%%%%%%%%%%%%%%%%%

 total number of charges    =             11

 total charge               =      0.0000000

%%%% CHARGES %%%%%%%%%%%%%%%%%%%%%%%%%%%%%%%%%%%%%%%%%%%%%%%%%%%%%%%%%%%%%%%%%%%

 total number of charges    =             11

 total charge               =      0.0000000

%%%% BOUNDARY %%%%%%%%%%%%%%%%%%%%%%%%%%%%%%%%%%%%%%%%%%%%%%%%%%%%%%%%%%%%%%%%%%

 boundary label             = solvent             
 boundary mode              = electronic          

 using the optimal SCCS function:
 rhomax                     =      0.0050000
 rhomin                     =      0.0001000

 volume of the QM region    =    230.3632191

 surface of the QM region   =    180.8957282

%%%% DENSITY %%%%%%%%%%%%%%%%%%%%%%%%%%%%%%%%%%%%%%%%%%%%%%%%%%%%%%%%%%%%%%%%%%%

 density label              = vreference                                        

 integral of density        =  -0.7809390994E-13

%%%% COMPUTE ELECTROSTATIC POTENTIAL %%%%%%%%%%%%%%%%%%%%%%%%%%%%%%%%%%%%%%%%%%%

 Warning: Bad guess with residual norm =   0.240800E+03, reset to no guess

   i |      alpha     |       pAp      |      rzold     |    delta_qm    |    delta_en    |       tol
 ---------------------------------------------------------------------------------------------------------
   1 |   0.983765E+00 |   0.289160E+02 |   0.284465E+02 |   0.116312E-01 |   0.233772E+03 |   0.100000E-12
   2 |   0.116358E+00 |   0.264143E+02 |   0.307351E+01 |   0.267900E-02 |   0.124019E+02 |   0.100000E-12
   3 |   0.150223E+00 |   0.132167E+01 |   0.198546E+00 |   0.849092E-03 |   0.124581E+01 |   0.100000E-12
   4 |   0.124852E+00 |   0.174851E+00 |   0.218305E-01 |   0.558758E-03 |   0.539500E+00 |   0.100000E-12
   5 |   0.280497E+00 |   0.637399E-02 |   0.178788E-02 |   0.358341E-03 |   0.221890E+00 |   0.100000E-12
   6 |   0.419546E+00 |   0.155241E-02 |   0.651308E-03 |   0.283009E-03 |   0.138402E+00 |   0.100000E-12
   7 |   0.319560E+00 |   0.938330E-03 |   0.299853E-03 |   0.310574E-03 |   0.166676E+00 |   0.100000E-12
   8 |   0.167926E+01 |   0.716057E-04 |   0.120245E-03 |   0.279563E-03 |   0.135053E+00 |   0.100000E-12
   9 |   0.734830E+00 |   0.614617E-03 |   0.451639E-03 |   0.248544E-03 |   0.106745E+00 |   0.100000E-12
  10 |   0.222397E+00 |   0.121422E-02 |   0.270039E-03 |   0.223243E-03 |   0.861194E-01 |   0.100000E-12
  11 |   0.265161E+00 |   0.420085E-03 |   0.111390E-03 |   0.186078E-03 |   0.598318E-01 |   0.100000E-12
  12 |   0.467124E+00 |   0.137247E-03 |   0.641112E-04 |   0.145074E-03 |   0.363684E-01 |   0.100000E-12
  13 |   0.598793E+00 |   0.814201E-04 |   0.487538E-04 |   0.130623E-03 |   0.294837E-01 |   0.100000E-12
  14 |   0.599530E+00 |   0.900755E-04 |   0.540030E-04 |   0.139099E-03 |   0.334341E-01 |   0.100000E-12
  15 |   0.592805E+00 |   0.868776E-04 |   0.515015E-04 |   0.106707E-03 |   0.196758E-01 |   0.100000E-12
  16 |   0.409002E+00 |   0.140208E-03 |   0.573455E-04 |   0.945214E-04 |   0.154384E-01 |   0.100000E-12
  17 |   0.426540E+00 |   0.394192E-04 |   0.168139E-04 |   0.892811E-04 |   0.137741E-01 |   0.100000E-12
  18 |   0.117316E+01 |   0.118103E-04 |   0.138555E-04 |   0.930009E-04 |   0.149457E-01 |   0.100000E-12
  19 |   0.344881E+00 |   0.141195E-03 |   0.486954E-04 |   0.107624E-03 |   0.200152E-01 |   0.100000E-12
  20 |   0.495780E+00 |   0.113280E-03 |   0.561620E-04 |   0.101255E-03 |   0.177164E-01 |   0.100000E-12
  21 |   0.537967E+00 |   0.401230E-04 |   0.215849E-04 |   0.882682E-04 |   0.134633E-01 |   0.100000E-12
  22 |   0.583879E+00 |   0.199904E-04 |   0.116719E-04 |   0.599181E-04 |   0.620383E-02 |   0.100000E-12
  23 |   0.673496E+00 |   0.105765E-04 |   0.712326E-05 |   0.436813E-04 |   0.329712E-02 |   0.100000E-12
  24 |   0.441154E+00 |   0.118313E-04 |   0.521943E-05 |   0.336980E-04 |   0.196224E-02 |   0.100000E-12
  25 |   0.498511E+00 |   0.550978E-05 |   0.274669E-05 |   0.196647E-04 |   0.668222E-03 |   0.100000E-12
  26 |   0.335715E+00 |   0.174562E-05 |   0.586032E-06 |   0.153394E-04 |   0.406593E-03 |   0.100000E-12
  27 |   0.166126E+00 |   0.397874E-05 |   0.660973E-06 |   0.994440E-05 |   0.170884E-03 |   0.100000E-12
  28 |   0.488165E+00 |   0.251744E-06 |   0.122893E-06 |   0.525686E-05 |   0.477526E-04 |   0.100000E-12
  29 |   0.432783E+00 |   0.998363E-07 |   0.432075E-07 |   0.277911E-05 |   0.133461E-04 |   0.100000E-12
  30 |   0.563267E+00 |   0.191696E-07 |   0.107976E-07 |   0.121966E-05 |   0.257052E-05 |   0.100000E-12
  31 |   0.635914E+00 |   0.331187E-08 |   0.210606E-08 |   0.709884E-06 |   0.870800E-06 |   0.100000E-12
  32 |   0.545835E+00 |   0.173143E-08 |   0.945076E-09 |   0.526295E-06 |   0.478632E-06 |   0.100000E-12
  33 |   0.679942E+00 |   0.409216E-09 |   0.278243E-09 |   0.289008E-06 |   0.144333E-06 |   0.100000E-12
  34 |   0.298736E+00 |   0.692400E-09 |   0.206845E-09 |   0.199115E-06 |   0.685099E-07 |   0.100000E-12
  35 |   0.270872E+00 |   0.537768E-09 |   0.145666E-09 |   0.149341E-06 |   0.385393E-07 |   0.100000E-12
  36 |   0.347571E+00 |   0.191589E-09 |   0.665907E-10 |   0.138457E-06 |   0.331263E-07 |   0.100000E-12
  37 |   0.527924E+00 |   0.498564E-10 |   0.263204E-10 |   0.115586E-06 |   0.230864E-07 |   0.100000E-12
  38 |   0.747497E+00 |   0.335415E-10 |   0.250722E-10 |   0.600549E-07 |   0.623219E-08 |   0.100000E-12
  39 |   0.539949E+00 |   0.140753E-10 |   0.759997E-11 |   0.341066E-07 |   0.201012E-08 |   0.100000E-12
  40 |   0.374951E+00 |   0.353484E-11 |   0.132539E-11 |   0.271318E-07 |   0.127204E-08 |   0.100000E-12
  41 |   0.212759E+00 |   0.601822E-11 |   0.128043E-11 |   0.167454E-07 |   0.484547E-09 |   0.100000E-12
  42 |   0.737161E+00 |   0.568151E-12 |   0.418819E-12 |   0.137418E-07 |   0.326310E-09 |   0.100000E-12
  43 |   0.475153E+00 |   0.918014E-12 |   0.436197E-12 |   0.177466E-07 |   0.544218E-09 |   0.100000E-12
  44 |   0.741748E+00 |   0.524008E-12 |   0.388682E-12 |   0.194348E-07 |   0.652688E-09 |   0.100000E-12
  45 |   0.732045E+00 |   0.519809E-12 |   0.380524E-12 |   0.144013E-07 |   0.358381E-09 |   0.100000E-12
  46 |   0.544992E+00 |   0.506307E-12 |   0.275933E-12 |   0.866554E-08 |   0.129758E-09 |   0.100000E-12
  47 |   0.193676E+00 |   0.925628E-12 |   0.179272E-12 |   0.676124E-08 |   0.789943E-10 |   0.100000E-12
  48 |   0.240583E+00 |   0.484447E-12 |   0.116550E-12 |   0.406720E-08 |   0.285848E-10 |   0.100000E-12
  49 |   0.443663E+00 |   0.479797E-13 |   0.212868E-13 |   0.183036E-08 |   0.578916E-11 |   0.100000E-12
  50 |   0.259050E+00 |   0.179715E-13 |   0.465551E-14 |   0.118616E-08 |   0.243126E-11 |   0.100000E-12
  51 |   0.239783E+00 |   0.117161E-13 |   0.280931E-14 |   0.653491E-09 |   0.737942E-12 |   0.100000E-12
  52 |   0.375939E+00 |   0.146780E-14 |   0.551804E-15 |   0.382367E-09 |   0.252642E-12 |   0.100000E-12
  53 |   0.459052E+00 |   0.507758E-15 |   0.233087E-15 |   0.224509E-09 |   0.870987E-13 |   0.100000E-12

 Charges are converged, EXIT

%%%% DENSITY %%%%%%%%%%%%%%%%%%%%%%%%%%%%%%%%%%%%%%%%%%%%%%%%%%%%%%%%%%%%%%%%%%%

 density label              = velectrostatic                                    

 integral of density        =   0.1219107120E-12

%%%% CHARGES %%%%%%%%%%%%%%%%%%%%%%%%%%%%%%%%%%%%%%%%%%%%%%%%%%%%%%%%%%%%%%%%%%%

 total number of charges    =             11

 total charge               =      0.0000000

%%%% DENSITY %%%%%%%%%%%%%%%%%%%%%%%%%%%%%%%%%%%%%%%%%%%%%%%%%%%%%%%%%%%%%%%%%%%

 density label              = vsoftcavity                                       

 integral of density        =    12.26028119    

%%%% DENSITY %%%%%%%%%%%%%%%%%%%%%%%%%%%%%%%%%%%%%%%%%%%%%%%%%%%%%%%%%%%%%%%%%%%

 density label              = dvtot                                             

 integral of density        =    12.26028119    

%%%% ELECTRONS %%%%%%%%%%%%%%%%%%%%%%%%%%%%%%%%%%%%%%%%%%%%%%%%%%%%%%%%%%%%%%%%%

 number of electrons        =              8

 total electronic charge    =      8.0000000

%%%% ELECTRONS %%%%%%%%%%%%%%%%%%%%%%%%%%%%%%%%%%%%%%%%%%%%%%%%%%%%%%%%%%%%%%%%%

 number of electrons        =              8

 total electronic charge    =      8.0000000

%%%% CHARGES %%%%%%%%%%%%%%%%%%%%%%%%%%%%%%%%%%%%%%%%%%%%%%%%%%%%%%%%%%%%%%%%%%%

 total number of charges    =             11

 total charge               =      0.0000000

%%%% CHARGES %%%%%%%%%%%%%%%%%%%%%%%%%%%%%%%%%%%%%%%%%%%%%%%%%%%%%%%%%%%%%%%%%%%

 total number of charges    =             11

 total charge               =      0.0000000

%%%% BOUNDARY %%%%%%%%%%%%%%%%%%%%%%%%%%%%%%%%%%%%%%%%%%%%%%%%%%%%%%%%%%%%%%%%%%

 boundary label             = solvent             
 boundary mode              = electronic          

 using the optimal SCCS function:
 rhomax                     =      0.0050000
 rhomin                     =      0.0001000

 volume of the QM region    =    230.7598034

 surface of the QM region   =    181.0886157

%%%% DENSITY %%%%%%%%%%%%%%%%%%%%%%%%%%%%%%%%%%%%%%%%%%%%%%%%%%%%%%%%%%%%%%%%%%%

 density label              = vreference                                        

 integral of density        =   0.1065814104E-13

%%%% COMPUTE ELECTROSTATIC POTENTIAL %%%%%%%%%%%%%%%%%%%%%%%%%%%%%%%%%%%%%%%%%%%

 Warning: Bad guess with residual norm =   0.237056E+03, reset to no guess

   i |      alpha     |       pAp      |      rzold     |    delta_qm    |    delta_en    |       tol
 ---------------------------------------------------------------------------------------------------------
   1 |   0.983760E+00 |   0.289144E+02 |   0.284448E+02 |   0.115407E-01 |   0.230147E+03 |   0.100000E-12
   2 |   0.116509E+00 |   0.263334E+02 |   0.306808E+01 |   0.267304E-02 |   0.123468E+02 |   0.100000E-12
   3 |   0.150671E+00 |   0.131874E+01 |   0.198696E+00 |   0.844057E-03 |   0.123108E+01 |   0.100000E-12
   4 |   0.124959E+00 |   0.174138E+00 |   0.217601E-01 |   0.557015E-03 |   0.536139E+00 |   0.100000E-12
   5 |   0.279624E+00 |   0.642945E-02 |   0.179783E-02 |   0.357730E-03 |   0.221133E+00 |   0.100000E-12
[...]
  48 |   0.196918E+00 |   0.563369E-12 |   0.110937E-12 |   0.387119E-08 |   0.258960E-10 |   0.100000E-12
  49 |   0.444163E+00 |   0.441334E-13 |   0.196024E-13 |   0.174482E-08 |   0.526072E-11 |   0.100000E-12
  50 |   0.514328E+00 |   0.619069E-14 |   0.318405E-14 |   0.713342E-09 |   0.879305E-12 |   0.100000E-12
  51 |   0.437022E+00 |   0.116199E-14 |   0.507814E-15 |   0.418656E-09 |   0.302872E-12 |   0.100000E-12
  52 |   0.215951E+00 |   0.252920E-14 |   0.546182E-15 |   0.276469E-09 |   0.132080E-12 |   0.100000E-12
  53 |   0.304130E+00 |   0.398005E-15 |   0.121045E-15 |   0.200517E-09 |   0.694781E-13 |   0.100000E-12

 Charges are converged, EXIT

%%%% DENSITY %%%%%%%%%%%%%%%%%%%%%%%%%%%%%%%%%%%%%%%%%%%%%%%%%%%%%%%%%%%%%%%%%%%

 density label              = velectrostatic                                    

 integral of density        =   0.1137526287E-12

%%%% CHARGES %%%%%%%%%%%%%%%%%%%%%%%%%%%%%%%%%%%%%%%%%%%%%%%%%%%%%%%%%%%%%%%%%%%

 total number of charges    =             11

 total charge               =     -0.0000000

%%%% DENSITY %%%%%%%%%%%%%%%%%%%%%%%%%%%%%%%%%%%%%%%%%%%%%%%%%%%%%%%%%%%%%%%%%%%

 density label              = vsoftcavity                                       

 integral of density        =    12.34181801    

%%%% DENSITY %%%%%%%%%%%%%%%%%%%%%%%%%%%%%%%%%%%%%%%%%%%%%%%%%%%%%%%%%%%%%%%%%%%

 density label              = dvtot                                             

 integral of density        =    12.34181801    

%%%% ELECTRONS %%%%%%%%%%%%%%%%%%%%%%%%%%%%%%%%%%%%%%%%%%%%%%%%%%%%%%%%%%%%%%%%%

 number of electrons        =              8

 total electronic charge    =      8.0000000

%%%% ELECTRONS %%%%%%%%%%%%%%%%%%%%%%%%%%%%%%%%%%%%%%%%%%%%%%%%%%%%%%%%%%%%%%%%%

 number of electrons        =              8

 total electronic charge    =      8.0000000

%%%% CHARGES %%%%%%%%%%%%%%%%%%%%%%%%%%%%%%%%%%%%%%%%%%%%%%%%%%%%%%%%%%%%%%%%%%%

 total number of charges    =             11

 total charge               =      0.0000000

%%%% CHARGES %%%%%%%%%%%%%%%%%%%%%%%%%%%%%%%%%%%%%%%%%%%%%%%%%%%%%%%%%%%%%%%%%%%

 total number of charges    =             11

 total charge               =      0.0000000

%%%% BOUNDARY %%%%%%%%%%%%%%%%%%%%%%%%%%%%%%%%%%%%%%%%%%%%%%%%%%%%%%%%%%%%%%%%%%

 boundary label             = solvent             
 boundary mode              = electronic          

 using the optimal SCCS function:
 rhomax                     =      0.0050000
 rhomin                     =      0.0001000

 volume of the QM region    =    230.8488288

 surface of the QM region   =    181.1245456

%%%% DENSITY %%%%%%%%%%%%%%%%%%%%%%%%%%%%%%%%%%%%%%%%%%%%%%%%%%%%%%%%%%%%%%%%%%%

 density label              = vreference                                        

 integral of density        =  -0.6954108071E-13

%%%% COMPUTE ELECTROSTATIC POTENTIAL %%%%%%%%%%%%%%%%%%%%%%%%%%%%%%%%%%%%%%%%%%%

 Warning: Bad guess with residual norm =   0.235450E+03, reset to no guess

   i |      alpha     |       pAp      |      rzold     |    delta_qm    |    delta_en    |       tol
 ---------------------------------------------------------------------------------------------------------
   1 |   0.983709E+00 |   0.289134E+02 |   0.284424E+02 |   0.115011E-01 |   0.228573E+03 |   0.100000E-12
   2 |   0.116578E+00 |   0.263740E+02 |   0.307461E+01 |   0.267514E-02 |   0.123662E+02 |   0.100000E-12
   3 |   0.150803E+00 |   0.132303E+01 |   0.199518E+00 |   0.843648E-03 |   0.122989E+01 |   0.100000E-12
   4 |   0.124989E+00 |   0.174605E+00 |   0.218237E-01 |   0.557157E-03 |   0.536413E+00 |   0.100000E-12
   5 |   0.279011E+00 |   0.648289E-02 |   0.180880E-02 |   0.358305E-03 |   0.221845E+00 |   0.100000E-12
   6 |   0.420106E+00 |   0.154791E-02 |   0.650287E-03 |   0.280716E-03 |   0.136169E+00 |   0.100000E-12
   7 |   0.320240E+00 |   0.948777E-03 |   0.303836E-03 |   0.308215E-03 |   0.164154E+00 |   0.100000E-12
   8 |   0.165577E+01 |   0.727985E-04 |   0.120538E-03 |   0.277101E-03 |   0.132684E+00 |   0.100000E-12
   9 |   0.749009E+00 |   0.602110E-03 |   0.450986E-03 |   0.245665E-03 |   0.104287E+00 |   0.100000E-12
  10 |   0.221492E+00 |   0.119791E-02 |   0.265328E-03 |   0.220459E-03 |   0.839845E-01 |   0.100000E-12
  11 |   0.266945E+00 |   0.399857E-03 |   0.106740E-03 |   0.183100E-03 |   0.579320E-01 |   0.100000E-12
  12 |   0.477918E+00 |   0.135667E-03 |   0.648379E-04 |   0.141385E-03 |   0.345424E-01 |   0.100000E-12
  13 |   0.577456E+00 |   0.858888E-04 |   0.495970E-04 |   0.130524E-03 |   0.294389E-01 |   0.100000E-12
  14 |   0.620220E+00 |   0.850268E-04 |   0.527354E-04 |   0.136373E-03 |   0.321367E-01 |   0.100000E-12
  15 |   0.576025E+00 |   0.919108E-04 |   0.529429E-04 |   0.104763E-03 |   0.189651E-01 |   0.100000E-12
  16 |   0.407792E+00 |   0.136242E-03 |   0.555586E-04 |   0.934219E-04 |   0.150814E-01 |   0.100000E-12
  17 |   0.433501E+00 |   0.383994E-04 |   0.166462E-04 |   0.881632E-04 |   0.134313E-01 |   0.100000E-12
  18 |   0.146964E+01 |   0.917065E-05 |   0.134776E-04 |   0.968789E-04 |   0.162182E-01 |   0.100000E-12
  19 |   0.962508E+00 |   0.368163E-04 |   0.354360E-04 |   0.102668E-03 |   0.182145E-01 |   0.100000E-12
  20 |   0.427200E+00 |   0.701588E-04 |   0.299718E-04 |   0.965069E-04 |   0.160939E-01 |   0.100000E-12
  21 |   0.256090E+00 |   0.888511E-04 |   0.227539E-04 |   0.835017E-04 |   0.120485E-01 |   0.100000E-12
  22 |   0.417193E+00 |   0.358971E-04 |   0.149760E-04 |   0.590019E-04 |   0.601555E-02 |   0.100000E-12
  23 |   0.670513E+00 |   0.107876E-04 |   0.723320E-05 |   0.437035E-04 |   0.330048E-02 |   0.100000E-12
  24 |   0.432580E+00 |   0.124231E-04 |   0.537398E-05 |   0.340914E-04 |   0.200832E-02 |   0.100000E-12
  25 |   0.490705E+00 |   0.546952E-05 |   0.268392E-05 |   0.194550E-04 |   0.654042E-03 |   0.100000E-12
  26 |   0.217059E+00 |   0.342051E-05 |   0.742453E-06 |   0.167886E-04 |   0.487048E-03 |   0.100000E-12
  27 |   0.245433E+00 |   0.263338E-05 |   0.646316E-06 |   0.989170E-05 |   0.169077E-03 |   0.100000E-12
  28 |   0.518713E+00 |   0.222623E-06 |   0.115478E-06 |   0.508972E-05 |   0.447642E-04 |   0.100000E-12
  29 |   0.426330E+00 |   0.101536E-06 |   0.432880E-07 |   0.271900E-05 |   0.127751E-04 |   0.100000E-12
  30 |   0.582865E+00 |   0.178345E-07 |   0.103951E-07 |   0.119513E-05 |   0.246816E-05 |   0.100000E-12
  31 |   0.617790E+00 |   0.341437E-08 |   0.210937E-08 |   0.716896E-06 |   0.888088E-06 |   0.100000E-12
  32 |   0.548412E+00 |   0.170292E-08 |   0.933899E-09 |   0.508739E-06 |   0.447233E-06 |   0.100000E-12
  33 |   0.591159E+00 |   0.447683E-09 |   0.264652E-09 |   0.310020E-06 |   0.166082E-06 |   0.100000E-12
  34 |   0.203207E+00 |   0.150546E-08 |   0.305920E-09 |   0.202509E-06 |   0.708650E-07 |   0.100000E-12
  35 |   0.423498E+00 |   0.270544E-09 |   0.114575E-09 |   0.134432E-06 |   0.312283E-07 |   0.100000E-12
  36 |   0.509593E+00 |   0.799705E-10 |   0.407524E-10 |   0.123970E-06 |   0.265570E-07 |   0.100000E-12
  37 |   0.113936E+01 |   0.142374E-10 |   0.162216E-10 |   0.761623E-07 |   0.100236E-07 |   0.100000E-12
  38 |   0.339340E+00 |   0.617562E-10 |   0.209564E-10 |   0.523260E-07 |   0.473129E-08 |   0.100000E-12
  39 |   0.388217E+00 |   0.204446E-10 |   0.793694E-11 |   0.316334E-07 |   0.172916E-08 |   0.100000E-12
  40 |   0.221762E+00 |   0.682057E-11 |   0.151254E-11 |   0.272332E-07 |   0.128157E-08 |   0.100000E-12
  41 |   0.320179E+00 |   0.307374E-11 |   0.984148E-12 |   0.150106E-07 |   0.389349E-09 |   0.100000E-12
  42 |   0.774001E+00 |   0.304533E-12 |   0.235708E-12 |   0.895060E-08 |   0.138436E-09 |   0.100000E-12
  43 |   0.734207E+00 |   0.213456E-12 |   0.156721E-12 |   0.114426E-07 |   0.226252E-09 |   0.100000E-12
  44 |   0.795625E+00 |   0.182670E-12 |   0.145337E-12 |   0.119391E-07 |   0.246315E-09 |   0.100000E-12
  45 |   0.590366E+00 |   0.335371E-12 |   0.197992E-12 |   0.101300E-07 |   0.177321E-09 |   0.100000E-12
  46 |   0.279347E+00 |   0.765430E-12 |   0.213820E-12 |   0.826821E-08 |   0.118132E-09 |   0.100000E-12
  47 |   0.221298E+00 |   0.981255E-12 |   0.217150E-12 |   0.622266E-08 |   0.669108E-10 |   0.100000E-12
  48 |   0.364099E+00 |   0.199344E-12 |   0.725809E-13 |   0.378340E-08 |   0.247348E-10 |   0.100000E-12
  49 |   0.446069E+00 |   0.419438E-13 |   0.187098E-13 |   0.175168E-08 |   0.530218E-11 |   0.100000E-12
  50 |   0.512040E+00 |   0.637392E-14 |   0.326370E-14 |   0.720384E-09 |   0.896752E-12 |   0.100000E-12
  51 |   0.512733E+00 |   0.101155E-14 |   0.518657E-15 |   0.387177E-09 |   0.259038E-12 |   0.100000E-12
  52 |   0.328155E+00 |   0.991783E-15 |   0.325459E-15 |   0.250745E-09 |   0.108645E-12 |   0.100000E-12
  53 |   0.225680E+00 |   0.396176E-15 |   0.894089E-16 |   0.196193E-09 |   0.665134E-13 |   0.100000E-12

 Charges are converged, EXIT

%%%% DENSITY %%%%%%%%%%%%%%%%%%%%%%%%%%%%%%%%%%%%%%%%%%%%%%%%%%%%%%%%%%%%%%%%%%%

 density label              = velectrostatic                                    

 integral of density        =   0.1023049958E-12

%%%% CHARGES %%%%%%%%%%%%%%%%%%%%%%%%%%%%%%%%%%%%%%%%%%%%%%%%%%%%%%%%%%%%%%%%%%%

 total number of charges    =             11

 total charge               =      0.0000000

%%%% DENSITY %%%%%%%%%%%%%%%%%%%%%%%%%%%%%%%%%%%%%%%%%%%%%%%%%%%%%%%%%%%%%%%%%%%

 density label              = vsoftcavity                                       

 integral of density        =    12.36695131    

%%%% DENSITY %%%%%%%%%%%%%%%%%%%%%%%%%%%%%%%%%%%%%%%%%%%%%%%%%%%%%%%%%%%%%%%%%%%

 density label              = dvtot                                             

 integral of density        =    12.36695131    

%%%% ELECTRONS %%%%%%%%%%%%%%%%%%%%%%%%%%%%%%%%%%%%%%%%%%%%%%%%%%%%%%%%%%%%%%%%%

 number of electrons        =              8

 total electronic charge    =      8.0000000

%%%% ELECTRONS %%%%%%%%%%%%%%%%%%%%%%%%%%%%%%%%%%%%%%%%%%%%%%%%%%%%%%%%%%%%%%%%%

 number of electrons        =              8

 total electronic charge    =      8.0000000

%%%% CHARGES %%%%%%%%%%%%%%%%%%%%%%%%%%%%%%%%%%%%%%%%%%%%%%%%%%%%%%%%%%%%%%%%%%%

 total number of charges    =             11

 total charge               =      0.0000000

%%%% CHARGES %%%%%%%%%%%%%%%%%%%%%%%%%%%%%%%%%%%%%%%%%%%%%%%%%%%%%%%%%%%%%%%%%%%

 total number of charges    =             11

 total charge               =      0.0000000

%%%% BOUNDARY %%%%%%%%%%%%%%%%%%%%%%%%%%%%%%%%%%%%%%%%%%%%%%%%%%%%%%%%%%%%%%%%%%

 boundary label             = solvent             
 boundary mode              = electronic          

 using the optimal SCCS function:
 rhomax                     =      0.0050000
 rhomin                     =      0.0001000

 volume of the QM region    =    230.8449073

 surface of the QM region   =    181.1222704

%%%% DENSITY %%%%%%%%%%%%%%%%%%%%%%%%%%%%%%%%%%%%%%%%%%%%%%%%%%%%%%%%%%%%%%%%%%%

 density label              = vreference                                        

 integral of density        =  -0.1294108853E-12

%%%% COMPUTE ELECTROSTATIC POTENTIAL %%%%%%%%%%%%%%%%%%%%%%%%%%%%%%%%%%%%%%%%%%%

 Warning: Bad guess with residual norm =   0.235094E+03, reset to no guess

   i |      alpha     |       pAp      |      rzold     |    delta_qm    |    delta_en    |       tol
 ---------------------------------------------------------------------------------------------------------
   1 |   0.983703E+00 |   0.289135E+02 |   0.284423E+02 |   0.114924E-01 |   0.228227E+03 |   0.100000E-12
   2 |   0.116583E+00 |   0.263808E+02 |   0.307556E+01 |   0.267457E-02 |   0.123609E+02 |   0.100000E-12
   3 |   0.150815E+00 |   0.132328E+01 |   0.199569E+00 |   0.843455E-03 |   0.122933E+01 |   0.100000E-12
   4 |   0.124986E+00 |   0.174672E+00 |   0.218315E-01 |   0.557220E-03 |   0.536534E+00 |   0.100000E-12
   5 |   0.278982E+00 |   0.648743E-02 |   0.180988E-02 |   0.358402E-03 |   0.221964E+00 |   0.100000E-12
   6 |   0.420104E+00 |   0.154811E-02 |   0.650367E-03 |   0.280598E-03 |   0.136054E+00 |   0.100000E-12
   7 |   0.320246E+00 |   0.949131E-03 |   0.303955E-03 |   0.308066E-03 |   0.163995E+00 |   0.100000E-12
   8 |   0.165481E+01 |   0.728601E-04 |   0.120569E-03 |   0.276887E-03 |   0.132479E+00 |   0.100000E-12
   9 |   0.749380E+00 |   0.601817E-03 |   0.450990E-03 |   0.245562E-03 |   0.104199E+00 |   0.100000E-12
  10 |   0.221236E+00 |   0.120009E-02 |   0.265505E-03 |   0.220372E-03 |   0.839185E-01 |   0.100000E-12
  11 |   0.267133E+00 |   0.399504E-03 |   0.106721E-03 |   0.182883E-03 |   0.577953E-01 |   0.100000E-12
  12 |   0.478328E+00 |   0.135557E-03 |   0.648408E-04 |   0.141112E-03 |   0.344089E-01 |   0.100000E-12
  13 |   0.576971E+00 |   0.859158E-04 |   0.495709E-04 |   0.130482E-03 |   0.294202E-01 |   0.100000E-12
  14 |   0.620662E+00 |   0.848652E-04 |   0.526726E-04 |   0.136223E-03 |   0.320661E-01 |   0.100000E-12
  15 |   0.575819E+00 |   0.919130E-04 |   0.529253E-04 |   0.104641E-03 |   0.189212E-01 |   0.100000E-12
  16 |   0.407817E+00 |   0.136095E-03 |   0.555019E-04 |   0.932885E-04 |   0.150383E-01 |   0.100000E-12
  17 |   0.433339E+00 |   0.383951E-04 |   0.166381E-04 |   0.880335E-04 |   0.133918E-01 |   0.100000E-12
  18 |   0.147118E+01 |   0.914888E-05 |   0.134596E-04 |   0.967231E-04 |   0.161661E-01 |   0.100000E-12
  19 |   0.969664E+00 |   0.365353E-04 |   0.354269E-04 |   0.102427E-03 |   0.181288E-01 |   0.100000E-12
  20 |   0.499390E+00 |   0.567887E-04 |   0.283597E-04 |   0.952459E-04 |   0.156760E-01 |   0.100000E-12
  21 |   0.589061E+00 |   0.237976E-04 |   0.140183E-04 |   0.671584E-04 |   0.779370E-02 |   0.100000E-12
  22 |   0.440176E+00 |   0.206961E-04 |   0.910994E-05 |   0.518956E-04 |   0.465377E-02 |   0.100000E-12
  23 |   0.285566E+00 |   0.391771E-04 |   0.111876E-04 |   0.431998E-04 |   0.322484E-02 |   0.100000E-12
  24 |   0.362550E+00 |   0.162995E-04 |   0.590938E-05 |   0.339991E-04 |   0.199746E-02 |   0.100000E-12
  25 |   0.488944E+00 |   0.552928E-05 |   0.270351E-05 |   0.195601E-04 |   0.661126E-03 |   0.100000E-12
  26 |   0.388101E+00 |   0.145217E-05 |   0.563587E-06 |   0.141401E-04 |   0.345500E-03 |   0.100000E-12
  27 |   0.148164E+00 |   0.383731E-05 |   0.568553E-06 |   0.970995E-05 |   0.162921E-03 |   0.100000E-12
  28 |   0.473292E+00 |   0.261196E-06 |   0.123622E-06 |   0.507941E-05 |   0.445831E-04 |   0.100000E-12
  29 |   0.425165E+00 |   0.101649E-06 |   0.432174E-07 |   0.271359E-05 |   0.127242E-04 |   0.100000E-12
  30 |   0.583784E+00 |   0.177227E-07 |   0.103462E-07 |   0.119154E-05 |   0.245334E-05 |   0.100000E-12
  31 |   0.616129E+00 |   0.341773E-08 |   0.210576E-08 |   0.714725E-06 |   0.882717E-06 |   0.100000E-12
  32 |   0.550789E+00 |   0.168403E-08 |   0.927546E-09 |   0.509367E-06 |   0.448337E-06 |   0.100000E-12
  33 |   0.717554E+00 |   0.352929E-09 |   0.253246E-09 |   0.262927E-06 |   0.119458E-06 |   0.100000E-12
  34 |   0.428732E+00 |   0.335352E-09 |   0.143776E-09 |   0.156674E-06 |   0.424166E-07 |   0.100000E-12
  35 |   0.215009E+00 |   0.491375E-09 |   0.105650E-09 |   0.130864E-06 |   0.295929E-07 |   0.100000E-12
  36 |   0.396192E+00 |   0.120168E-09 |   0.476095E-10 |   0.123086E-06 |   0.261794E-07 |   0.100000E-12
  37 |   0.123804E+01 |   0.128436E-10 |   0.159009E-10 |   0.724691E-07 |   0.907507E-08 |   0.100000E-12
  38 |   0.423854E+00 |   0.353447E-10 |   0.149810E-10 |   0.455280E-07 |   0.358179E-08 |   0.100000E-12
  39 |   0.279480E+00 |   0.268743E-10 |   0.751083E-11 |   0.332606E-07 |   0.191164E-08 |   0.100000E-12
  40 |   0.211222E+00 |   0.771024E-11 |   0.162857E-11 |   0.247431E-07 |   0.105792E-08 |   0.100000E-12
  41 |   0.332598E+00 |   0.264475E-11 |   0.879641E-12 |   0.149311E-07 |   0.385237E-09 |   0.100000E-12
  42 |   0.733334E+00 |   0.286089E-12 |   0.209798E-12 |   0.777150E-08 |   0.104365E-09 |   0.100000E-12
  43 |   0.707258E+00 |   0.175157E-12 |   0.123881E-12 |   0.949888E-08 |   0.155915E-09 |   0.100000E-12
  44 |   0.846160E+00 |   0.121883E-12 |   0.103132E-12 |   0.101171E-07 |   0.176871E-09 |   0.100000E-12
  45 |   0.696845E+00 |   0.198168E-12 |   0.138093E-12 |   0.880119E-08 |   0.133852E-09 |   0.100000E-12
  46 |   0.332778E+00 |   0.452930E-12 |   0.150725E-12 |   0.729308E-08 |   0.919106E-10 |   0.100000E-12
  47 |   0.202992E+00 |   0.868109E-12 |   0.176219E-12 |   0.567411E-08 |   0.556338E-10 |   0.100000E-12
  48 |   0.321726E+00 |   0.196876E-12 |   0.633400E-13 |   0.363754E-08 |   0.228644E-10 |   0.100000E-12
  49 |   0.415182E+00 |   0.448374E-13 |   0.186157E-13 |   0.173472E-08 |   0.519997E-11 |   0.100000E-12
  50 |   0.517721E+00 |   0.622436E-14 |   0.322248E-14 |   0.705393E-09 |   0.859817E-12 |   0.100000E-12
  51 |   0.716997E+00 |   0.607942E-15 |   0.435893E-15 |   0.313229E-09 |   0.169538E-12 |   0.100000E-12
  52 |   0.335706E+00 |   0.447537E-15 |   0.150241E-15 |   0.226926E-09 |   0.889837E-13 |   0.100000E-12

 Charges are converged, EXIT

%%%% DENSITY %%%%%%%%%%%%%%%%%%%%%%%%%%%%%%%%%%%%%%%%%%%%%%%%%%%%%%%%%%%%%%%%%%%

 density label              = velectrostatic                                    

 integral of density        =   0.1042129346E-12

%%%% CHARGES %%%%%%%%%%%%%%%%%%%%%%%%%%%%%%%%%%%%%%%%%%%%%%%%%%%%%%%%%%%%%%%%%%%

 total number of charges    =             11

 total charge               =      0.0000000

%%%% DENSITY %%%%%%%%%%%%%%%%%%%%%%%%%%%%%%%%%%%%%%%%%%%%%%%%%%%%%%%%%%%%%%%%%%%

 density label              = vsoftcavity                                       

 integral of density        =    12.37175446    

%%%% DENSITY %%%%%%%%%%%%%%%%%%%%%%%%%%%%%%%%%%%%%%%%%%%%%%%%%%%%%%%%%%%%%%%%%%%

 density label              = dvtot                                             

 integral of density        =    12.37175446    

%%%% ELECTRONS %%%%%%%%%%%%%%%%%%%%%%%%%%%%%%%%%%%%%%%%%%%%%%%%%%%%%%%%%%%%%%%%%

 number of electrons        =              8

 total electronic charge    =      8.0000000

%%%% ELECTRONS %%%%%%%%%%%%%%%%%%%%%%%%%%%%%%%%%%%%%%%%%%%%%%%%%%%%%%%%%%%%%%%%%

 number of electrons        =              8

 total electronic charge    =      8.0000000

%%%% CHARGES %%%%%%%%%%%%%%%%%%%%%%%%%%%%%%%%%%%%%%%%%%%%%%%%%%%%%%%%%%%%%%%%%%%

 total number of charges    =             11

 total charge               =      0.0000000

%%%% CHARGES %%%%%%%%%%%%%%%%%%%%%%%%%%%%%%%%%%%%%%%%%%%%%%%%%%%%%%%%%%%%%%%%%%%

 total number of charges    =             11

 total charge               =      0.0000000

%%%% BOUNDARY %%%%%%%%%%%%%%%%%%%%%%%%%%%%%%%%%%%%%%%%%%%%%%%%%%%%%%%%%%%%%%%%%%

 boundary label             = solvent             
 boundary mode              = electronic          

 using the optimal SCCS function:
 rhomax                     =      0.0050000
 rhomin                     =      0.0001000

 volume of the QM region    =    230.8449073

 surface of the QM region   =    181.1222704

%%%% DENSITY %%%%%%%%%%%%%%%%%%%%%%%%%%%%%%%%%%%%%%%%%%%%%%%%%%%%%%%%%%%%%%%%%%%

 density label              = dvtot                                             

 integral of density        =    12.37175446    

%%%% DENSITY %%%%%%%%%%%%%%%%%%%%%%%%%%%%%%%%%%%%%%%%%%%%%%%%%%%%%%%%%%%%%%%%%%%

 density label              = vreference                                        

 integral of density        =  -0.1294108853E-12

%%%% DENSITY %%%%%%%%%%%%%%%%%%%%%%%%%%%%%%%%%%%%%%%%%%%%%%%%%%%%%%%%%%%%%%%%%%%

 density label              = velectrostatic                                    

 integral of density        =   0.1042129346E-12

%%%% CHARGES %%%%%%%%%%%%%%%%%%%%%%%%%%%%%%%%%%%%%%%%%%%%%%%%%%%%%%%%%%%%%%%%%%%

 total number of charges    =             11

 total charge               =      0.0000000

%%%% DENSITY %%%%%%%%%%%%%%%%%%%%%%%%%%%%%%%%%%%%%%%%%%%%%%%%%%%%%%%%%%%%%%%%%%%

 density label              = vsoftcavity                                       

 integral of density        =    12.37175446    
