
     Program PWSCF v.7.0 starts on 22Apr2022 at 20:36: 5 

     This program is part of the open-source Quantum ESPRESSO suite
     for quantum simulation of materials; please cite
         "P. Giannozzi et al., J. Phys.:Condens. Matter 21 395502 (2009);
         "P. Giannozzi et al., J. Phys.:Condens. Matter 29 465901 (2017);
         "P. Giannozzi et al., J. Chem. Phys. 152 154105 (2020);
          URL http://www.quantum-espresso.org", 
     in publications or presentations arising from this work. More details at
     http://www.quantum-espresso.org/quote

     Parallel version (MPI), running on     1 processors

     MPI processes distributed on     1 nodes
     22824 MiB available memory on the printing compute node when the environment starts
 
     Reading input from charged.in

     Current dimensions of program PWSCF are:
     Max number of different atomic species (ntypx) = 10
     Max number of k-points (npk) =  40000
     Max angular momentum in pseudopotentials (lmaxx) =  4
 
     Reading input from environ.in:
     * using electronic solvent mode
     * setting boundary derivatives method to SCCS default
     
     file C.pbe-rrkjus.UPF: wavefunction(s)  2S 2P renormalized
     file H.pbe-rrkjus.UPF: wavefunction(s)  1S renormalized
     file N.pbe-rrkjus.UPF: wavefunction(s)  2S renormalized
     file O.pbe-rrkjus.UPF: wavefunction(s)  2S renormalized

     gamma-point specific algorithms are used

     Subspace diagonalization in iterative solution of the eigenvalue problem:
     a serial algorithm will be used

 
     G-vector sticks info
     --------------------
     sticks:   dense  smooth     PW     G-vecs:    dense   smooth      PW
     Sum        9549    3809    949               701475   177509   22119
 
     Using Slab Decomposition
 


     bravais-lattice index     =            1
     lattice parameter (alat)  =      20.0000  a.u.
     unit-cell volume          =    8000.0000 (a.u.)^3
     number of atoms/cell      =           10
     number of atomic types    =            4
     number of electrons       =        24.00
     number of Kohn-Sham states=           12
     kinetic-energy cutoff     =      30.0000  Ry
     charge density cutoff     =     300.0000  Ry
     scf convergence threshold =      5.0E-03
     mixing beta               =       0.7000
     number of iterations used =            8  plain     mixing
     Exchange-correlation= SLA  PW   PBE  PBE
                           (   1   4   3   4   0   0   0)

     ================================================================================
 
                                  Environ Setup Summary

     ================================================================================
 
     Please cite

          O. Andreussi, I. Dabo and N. Marzari, J. Chem. Phys. 136, 064102 (2012)

     in publications or presentations arising from this work.

     ================================================================================
 
     Parameters
     ==========

     compensation onset threshold      =               0.1000E+03
     static permittivity               =                   100.00

     Solvent Boundary
     ================

     solvent mode                      =               electronic
     derivatives method                =                    chain
     numerical core for derivatives    =                      fft
     switching function adopted        =                     SCCS
     density limit for vacuum region   =               0.5000E-02
     density limit for bulk solvent    =               0.1000E-03

     Electrostatic Setup
     ===================

     electrostatic problem to solve    =              generalized
     numerical solver adopted          =                       cg
     type of auxiliary density adopted =                     none
     numerical core for poisson        =                      fft

     ================================================================================
 
     Assuming isolated system, Martyna-Tuckerman method


     celldm(1)=  20.000000  celldm(2)=   0.000000  celldm(3)=   0.000000
     celldm(4)=   0.000000  celldm(5)=   0.000000  celldm(6)=   0.000000

     crystal axes: (cart. coord. in units of alat)
               a(1) = (   1.000000   0.000000   0.000000 )  
               a(2) = (   0.000000   1.000000   0.000000 )  
               a(3) = (   0.000000   0.000000   1.000000 )  

     reciprocal axes: (cart. coord. in units 2 pi/alat)
               b(1) = (  1.000000  0.000000  0.000000 )  
               b(2) = (  0.000000  1.000000  0.000000 )  
               b(3) = (  0.000000  0.000000  1.000000 )  


     PseudoPot. # 1 for C  read from file:
     MD5 check sum: c9ac5a99bc85b198593446162950cd17
     Pseudo is Ultrasoft, Zval =  4.0
     Generated by new atomic code, or converted to UPF format
     Using radial grid of  627 points,  4 beta functions with: 
                l(1) =   0
                l(2) =   0
                l(3) =   1
                l(4) =   1
     Q(r) pseudized with 0 coefficients 


     PseudoPot. # 2 for H  read from file:
     MD5 check sum: 2d52a7f45632fd764c17cc6affed14c8
     Pseudo is Ultrasoft, Zval =  1.0
     Generated by new atomic code, or converted to UPF format
     Using radial grid of 1061 points,  2 beta functions with: 
                l(1) =   0
                l(2) =   0
     Q(r) pseudized with 0 coefficients 


     PseudoPot. # 3 for N  read from file:
     MD5 check sum: 28c76d763763edb36c62a6ca2be9aebd
     Pseudo is Ultrasoft, Zval =  5.0
     Generated by new atomic code, or converted to UPF format
     Using radial grid of 1257 points,  4 beta functions with: 
                l(1) =   0
                l(2) =   0
                l(3) =   1
                l(4) =   1
     Q(r) pseudized with 0 coefficients 


     PseudoPot. # 4 for O  read from file:
     MD5 check sum: fadcf19ee70a498d3030e2e79cf929a4
     Pseudo is Ultrasoft, Zval =  6.0
     Generated by new atomic code, or converted to UPF format
     Using radial grid of 1269 points,  4 beta functions with: 
                l(1) =   0
                l(2) =   0
                l(3) =   1
                l(4) =   1
     Q(r) pseudized with 0 coefficients 


     atomic species   valence    mass     pseudopotential
        C              4.00    12.00000     C ( 1.00)
        H              1.00     1.00000     H ( 1.00)
        N              5.00    14.00000     N ( 1.00)
        O              6.00    16.00000     O ( 1.00)

     No symmetry found



   Cartesian axes

     site n.     atom                  positions (alat units)
         1           C   tau(   1) = (   0.0000000   0.0000000   0.0000000  )
         2           C   tau(   2) = (   0.0000000   0.0000000   0.1455089  )
         3           N   tau(   3) = (   0.1170969   0.0000000  -0.0545024  )
         4           H   tau(   4) = (   0.0476617  -0.0825466   0.1792090  )
         5           H   tau(   5) = (  -0.0953183  -0.0000030   0.1792090  )
         6           H   tau(   6) = (   0.0476566   0.0825496   0.1792090  )
         7           O   tau(   7) = (  -0.0984002  -0.0000019  -0.0641310  )
         8           H   tau(   8) = (   0.1263131  -0.0000015  -0.1475548  )
         9           H   tau(   9) = (   0.1944645   0.0000134  -0.0025716  )
        10           H   tau(  10) = (  -0.0770366  -0.0000045  -0.1522861  )

     number of k points=     1
                       cart. coord. in units 2pi/alat
        k(    1) = (   0.0000000   0.0000000   0.0000000), wk =   2.0000000

     Dense  grid:   350738 G-vectors     FFT dimensions: ( 120, 120, 120)

     Smooth grid:    88755 G-vectors     FFT dimensions: (  72,  72,  72)

     Estimated max dynamical RAM per process >     624.11 MB

     Initial potential from superposition of free atoms

     starting charge      24.4227, renormalised to      24.0000

     negative rho (up, down):  4.438E-04 0.000E+00
     Starting wfcs are   22 randomized atomic wfcs

     total cpu time spent up to now is        6.1 secs

     Self-consistent Calculation

     iteration #  1     ecut=    30.00 Ry     beta= 0.70
     Davidson diagonalization with overlap
     ethr =  1.00E-02,  avg # of iterations =  3.0

     negative rho (up, down):  8.103E-05 0.000E+00

     add environment contribution to local potential
     Polarization accuracy = 5.9E-06, # of iterations =  17

     total cpu time spent up to now is       10.4 secs

     total energy              =     -80.20753153 Ry
     estimated scf accuracy    <       3.49736245 Ry
     electrostatic embedding   =       0.00000000 Ry
     correction to one-el term =       0.00000000 Ry

     iteration #  2     ecut=    30.00 Ry     beta= 0.70
     Davidson diagonalization with overlap
     ethr =  1.00E-02,  avg # of iterations =  3.0

     negative rho (up, down):  3.005E-04 0.000E+00

     add environment contribution to local potential
     Polarization accuracy = 9.5E-06, # of iterations =  17

     total cpu time spent up to now is       14.3 secs

     total energy              =     -81.25066131 Ry
     estimated scf accuracy    <       0.71952109 Ry
     electrostatic embedding   =      -0.34163760 Ry
     correction to one-el term =     -11.46889617 Ry

     iteration #  3     ecut=    30.00 Ry     beta= 0.70
     Davidson diagonalization with overlap
     ethr =  3.00E-03,  avg # of iterations =  2.0

     negative rho (up, down):  1.106E-04 0.000E+00

     add environment contribution to local potential
     Polarization accuracy = 5.3E-06, # of iterations =  23

     total cpu time spent up to now is       19.8 secs

     total energy              =     -81.34361282 Ry
     estimated scf accuracy    <       0.04025513 Ry
     electrostatic embedding   =      -0.29399364 Ry
     correction to one-el term =     -10.68694716 Ry

     iteration #  4     ecut=    30.00 Ry     beta= 0.70
     Davidson diagonalization with overlap
     ethr =  1.68E-04,  avg # of iterations =  3.0

     negative rho (up, down):  5.845E-05 0.000E+00

     add environment contribution to local potential
     Polarization accuracy = 8.5E-06, # of iterations =  23

     total cpu time spent up to now is       25.0 secs

     total energy              =     -81.36589102 Ry
     estimated scf accuracy    <       0.00936639 Ry
     electrostatic embedding   =      -0.26850578 Ry
     correction to one-el term =     -10.17701611 Ry

     iteration #  5     ecut=    30.00 Ry     beta= 0.70
     Davidson diagonalization with overlap
     ethr =  3.90E-05,  avg # of iterations =  2.0

     negative rho (up, down):  2.875E-04 0.000E+00

     the potential shift due to the Gaussian-smeared nuclei is    -0.0668 ev

     total cpu time spent up to now is       26.6 secs

     End of self-consistent calculation

          k = 0.0000 0.0000 0.0000 ( 11060 PWs)   bands (ev):

   -29.3965 -23.6473 -19.0596 -16.4586 -15.1515 -13.9081 -12.1261 -11.4097
   -10.0168 -10.0120  -9.7727  -7.9334

     highest occupied level (ev):    -7.9334

!    total energy              =     -81.36709711 Ry
     estimated scf accuracy    <       0.00122246 Ry

     The total energy is the sum of the following terms:
     one-electron contribution =    -400.52368221 Ry
     hartree contribution      =     202.09480975 Ry
     xc contribution           =     -22.98655957 Ry
     ewald contribution        =     150.41270189 Ry
     electrostatic embedding   =      -0.26737107 Ry
     correction to one-el term =     -10.09699591 Ry

     convergence has been achieved in   5 iterations

     Forces acting on atoms (cartesian axes, Ry/au):

     atom    1 type  1   force =     0.21981347   -0.00001871    0.10197112
     atom    2 type  1   force =    -0.03000913   -0.00000860   -0.07363186
     atom    3 type  3   force =    -0.13586821   -0.00005319    0.04034117
     atom    4 type  2   force =     0.01430718   -0.02160837    0.00698009
     atom    5 type  2   force =    -0.02529008    0.00001738    0.01015993
     atom    6 type  2   force =     0.01430336    0.02166667    0.00699565
     atom    7 type  4   force =    -0.08629443   -0.00003289   -0.00797324
     atom    8 type  2   force =     0.00617045    0.00000997   -0.04523162
     atom    9 type  2   force =     0.03552519    0.00001664    0.03208731
     atom   10 type  2   force =    -0.01265779    0.00001110   -0.07169854

     Total force =     0.323263     Total SCF correction =     0.036086
     SCF correction compared to forces is large: reduce conv_thr to get better values

 
     init_run     :      5.71s CPU      6.03s WALL (       1 calls)
     electrons    :     18.85s CPU     20.52s WALL (       1 calls)
     forces       :      0.72s CPU      0.79s WALL (       1 calls)

     Called by init_run:
     wfcinit      :      0.14s CPU      0.15s WALL (       1 calls)
     potinit      :      1.10s CPU      1.17s WALL (       1 calls)
     hinit0       :      3.53s CPU      3.53s WALL (       1 calls)

     Called by electrons:
     c_bands      :      0.93s CPU      1.02s WALL (       5 calls)
     sum_band     :      2.01s CPU      2.34s WALL (       5 calls)
     v_of_rho     :      2.30s CPU      2.57s WALL (       6 calls)
     newd         :      1.41s CPU      1.90s WALL (       6 calls)
     mix_rho      :      0.22s CPU      0.22s WALL (       5 calls)

     Called by c_bands:
     init_us_2    :      0.03s CPU      0.03s WALL (      11 calls)
     init_us_2:cp :      0.03s CPU      0.03s WALL (      11 calls)
     regterg      :      0.87s CPU      0.96s WALL (       5 calls)

     Called by *egterg:
     rdiaghg      :      0.00s CPU      0.00s WALL (      18 calls)
     h_psi        :      0.91s CPU      1.01s WALL (      19 calls)
     s_psi        :      0.02s CPU      0.02s WALL (      19 calls)
     g_psi        :      0.00s CPU      0.00s WALL (      13 calls)

     Called by h_psi:
     h_psi:calbec :      0.02s CPU      0.05s WALL (      19 calls)
     vloc_psi     :      0.86s CPU      0.93s WALL (      19 calls)
     add_vuspsi   :      0.02s CPU      0.02s WALL (      19 calls)

     General routines
     calbec       :      0.03s CPU      0.06s WALL (      28 calls)
     fft          :      1.07s CPU      1.13s WALL (      67 calls)
     ffts         :      0.03s CPU      0.03s WALL (      11 calls)
     fftw         :      0.70s CPU      0.74s WALL (     234 calls)
     interpolate  :      0.14s CPU      0.14s WALL (       6 calls)
 
     Parallel routines
 
     Environ routines
 
     PWSCF        :     25.40s CPU     27.45s WALL

 
   This run was terminated on:  20:36:32  22Apr2022            

=------------------------------------------------------------------------------=
   JOB DONE.
=------------------------------------------------------------------------------=

%%%% CELL %%%%%%%%%%%%%%%%%%%%%%%%%%%%%%%%%%%%%%%%%%%%%%%%%%%%%%%%%%%%%%%%%%%%%%

 cell label                 = system         

 cell volume                =    8000.000000

%%%% IONS %%%%%%%%%%%%%%%%%%%%%%%%%%%%%%%%%%%%%%%%%%%%%%%%%%%%%%%%%%%%%%%%%%%%%%

 total charge               =    -25.0000000
 center of charge           =      0.1036944    -0.0000075     0.0650154
 dipole                     =      0.0000000     0.0000000     0.0000000
 quadrupole (pc)            =    -79.2736207    -5.4513517  -105.9050187
 quadrupole (gauss)         =    -82.3986207    -8.5763517  -109.0300187

   i | type | coordinates
 -----------------------------------------------------------------------
   1 |    1 |                      0.0000000     0.0000000     0.0000000
   2 |    1 |                      0.0000000     0.0000000     2.9101782
   3 |    3 |                      2.3419379     0.0000000    -1.0900479
   4 |    2 |                      0.9532347    -1.6509323     3.5841800
   5 |    2 |                     -1.9063663    -0.0000596     3.5841809
   6 |    2 |                      0.9531315     1.6509919     3.5841800
   7 |    4 |                     -1.9680045    -0.0000375    -1.2826193
   8 |    2 |                      2.5262613    -0.0000303    -2.9510950
   9 |    2 |                      3.8892907     0.0002681    -0.0514326
  10 |    2 |                     -1.5407317    -0.0000890    -3.0457220

%%%% SYSTEM %%%%%%%%%%%%%%%%%%%%%%%%%%%%%%%%%%%%%%%%%%%%%%%%%%%%%%%%%%%%%%%%%%%%

 system is built from all present ionic types

 system defined dimension   =              0
 system defined axis        =              3

 system center              =      0.1036944    -0.0000075     0.0650154
 system width               =      4.0527608

%%%% IONS %%%%%%%%%%%%%%%%%%%%%%%%%%%%%%%%%%%%%%%%%%%%%%%%%%%%%%%%%%%%%%%%%%%%%%

 total charge               =    -25.0000000
 center of charge           =      0.1036944    -0.0000075     0.0650154
 dipole                     =      0.0000000     0.0000000     0.0000000
 quadrupole (pc)            =    -79.2736207    -5.4513517  -105.9050187
 quadrupole (gauss)         =    -82.3986207    -8.5763517  -109.0300187

   i | type | coordinates
 -----------------------------------------------------------------------
   1 |    1 |                      0.0000000     0.0000000     0.0000000
   2 |    1 |                      0.0000000     0.0000000     2.9101782
   3 |    3 |                      2.3419379     0.0000000    -1.0900479
   4 |    2 |                      0.9532347    -1.6509323     3.5841800
   5 |    2 |                     -1.9063663    -0.0000596     3.5841809
   6 |    2 |                      0.9531315     1.6509919     3.5841800
   7 |    4 |                     -1.9680045    -0.0000375    -1.2826193
   8 |    2 |                      2.5262613    -0.0000303    -2.9510950
   9 |    2 |                      3.8892907     0.0002681    -0.0514326
  10 |    2 |                     -1.5407317    -0.0000890    -3.0457220

%%%% SYSTEM %%%%%%%%%%%%%%%%%%%%%%%%%%%%%%%%%%%%%%%%%%%%%%%%%%%%%%%%%%%%%%%%%%%%

 system is built from all present ionic types

 system defined dimension   =              0
 system defined axis        =              3

 system center              =      0.1036944    -0.0000075     0.0650154
 system width               =      4.0527608

%%%% CHARGES %%%%%%%%%%%%%%%%%%%%%%%%%%%%%%%%%%%%%%%%%%%%%%%%%%%%%%%%%%%%%%%%%%%

 total number of charges    =             10

 total charge               =    -25.0000000

%%%% CHARGES %%%%%%%%%%%%%%%%%%%%%%%%%%%%%%%%%%%%%%%%%%%%%%%%%%%%%%%%%%%%%%%%%%%

 total number of charges    =             10

 total charge               =    -25.0000000

%%%% CELL %%%%%%%%%%%%%%%%%%%%%%%%%%%%%%%%%%%%%%%%%%%%%%%%%%%%%%%%%%%%%%%%%%%%%%

 cell label                 = system         

 cell volume                =    8000.000000

%%%% ELECTRONS %%%%%%%%%%%%%%%%%%%%%%%%%%%%%%%%%%%%%%%%%%%%%%%%%%%%%%%%%%%%%%%%%

 number of electrons        =             24

 total electronic charge    =     24.0000000

%%%% ELECTRONS %%%%%%%%%%%%%%%%%%%%%%%%%%%%%%%%%%%%%%%%%%%%%%%%%%%%%%%%%%%%%%%%%

 number of electrons        =             24

 total electronic charge    =     24.0000000

%%%% CHARGES %%%%%%%%%%%%%%%%%%%%%%%%%%%%%%%%%%%%%%%%%%%%%%%%%%%%%%%%%%%%%%%%%%%

 total number of charges    =             34

 total charge               =     -1.0000000

%%%% CHARGES %%%%%%%%%%%%%%%%%%%%%%%%%%%%%%%%%%%%%%%%%%%%%%%%%%%%%%%%%%%%%%%%%%%

 total number of charges    =             34

 total charge               =     -1.0000000

%%%% BOUNDARY %%%%%%%%%%%%%%%%%%%%%%%%%%%%%%%%%%%%%%%%%%%%%%%%%%%%%%%%%%%%%%%%%%

 boundary label             = solvent             
 boundary mode              = electronic          

 using the optimal SCCS function:
 rhomax                     =      0.0050000
 rhomin                     =      0.0001000

 volume of the QM region    =   1611.6286938

 surface of the QM region   =    641.7174084

%%%% DENSITY %%%%%%%%%%%%%%%%%%%%%%%%%%%%%%%%%%%%%%%%%%%%%%%%%%%%%%%%%%%%%%%%%%%

 density label              = dvtot                                             

 integral of density        =    0.000000000    

%%%% DENSITY %%%%%%%%%%%%%%%%%%%%%%%%%%%%%%%%%%%%%%%%%%%%%%%%%%%%%%%%%%%%%%%%%%%

 density label              = vreference                                        

 integral of density        =    0.000000000    

%%%% DENSITY %%%%%%%%%%%%%%%%%%%%%%%%%%%%%%%%%%%%%%%%%%%%%%%%%%%%%%%%%%%%%%%%%%%

 density label              = velectrostatic                                    

 integral of density        =    0.000000000    

%%%% CHARGES %%%%%%%%%%%%%%%%%%%%%%%%%%%%%%%%%%%%%%%%%%%%%%%%%%%%%%%%%%%%%%%%%%%

 total number of charges    =             34

 total charge               =     -1.0000000

%%%% DENSITY %%%%%%%%%%%%%%%%%%%%%%%%%%%%%%%%%%%%%%%%%%%%%%%%%%%%%%%%%%%%%%%%%%%

 density label              = vsoftcavity                                       

 integral of density        =    0.000000000    

%%%% ELECTRONS %%%%%%%%%%%%%%%%%%%%%%%%%%%%%%%%%%%%%%%%%%%%%%%%%%%%%%%%%%%%%%%%%

 number of electrons        =             24

 total electronic charge    =     24.0000000

%%%% ELECTRONS %%%%%%%%%%%%%%%%%%%%%%%%%%%%%%%%%%%%%%%%%%%%%%%%%%%%%%%%%%%%%%%%%

 number of electrons        =             24

 total electronic charge    =     24.0000000

%%%% CHARGES %%%%%%%%%%%%%%%%%%%%%%%%%%%%%%%%%%%%%%%%%%%%%%%%%%%%%%%%%%%%%%%%%%%

 total number of charges    =             34

 total charge               =     -1.0000000

%%%% CHARGES %%%%%%%%%%%%%%%%%%%%%%%%%%%%%%%%%%%%%%%%%%%%%%%%%%%%%%%%%%%%%%%%%%%

 total number of charges    =             34

 total charge               =     -1.0000000

%%%% BOUNDARY %%%%%%%%%%%%%%%%%%%%%%%%%%%%%%%%%%%%%%%%%%%%%%%%%%%%%%%%%%%%%%%%%%

 boundary label             = solvent             
 boundary mode              = electronic          

 using the optimal SCCS function:
 rhomax                     =      0.0050000
 rhomin                     =      0.0001000

 volume of the QM region    =    694.1047642

 surface of the QM region   =    394.1296929

%%%% DENSITY %%%%%%%%%%%%%%%%%%%%%%%%%%%%%%%%%%%%%%%%%%%%%%%%%%%%%%%%%%%%%%%%%%%

 density label              = vreference                                        

 integral of density        =   -1906.247710    

%%%% COMPUTE ELECTROSTATIC POTENTIAL %%%%%%%%%%%%%%%%%%%%%%%%%%%%%%%%%%%%%%%%%%%

   i |      alpha     |       pAp      |      rzold     |    delta_qm    |    delta_en    |       tol
 ---------------------------------------------------------------------------------------------------------
   1 |   0.808338E+00 |   0.112351E+03 |   0.908179E+02 |   0.443034E-01 |   0.339170E+04 |   0.100000E-04
   2 |   0.646135E-01 |   0.385121E+04 |   0.248840E+03 |   0.411911E-02 |   0.293191E+02 |   0.100000E-04
   3 |   0.188791E+00 |   0.314490E+01 |   0.593728E+00 |   0.172891E-02 |   0.516524E+01 |   0.100000E-04
   4 |   0.203736E+00 |   0.343788E+00 |   0.700419E-01 |   0.118255E-02 |   0.241646E+01 |   0.100000E-04
   5 |   0.338527E+00 |   0.201826E-01 |   0.683236E-02 |   0.674167E-03 |   0.785377E+00 |   0.100000E-04
   6 |   0.428604E+00 |   0.395121E-02 |   0.169351E-02 |   0.352394E-03 |   0.214586E+00 |   0.100000E-04
   7 |   0.215774E+00 |   0.303776E-02 |   0.655470E-03 |   0.258877E-03 |   0.115806E+00 |   0.100000E-04
   8 |   0.573527E+00 |   0.381809E-03 |   0.218978E-03 |   0.152137E-03 |   0.399957E-01 |   0.100000E-04
   9 |   0.740390E+00 |   0.214181E-03 |   0.158578E-03 |   0.115911E-03 |   0.232164E-01 |   0.100000E-04
  10 |   0.536284E+00 |   0.161577E-03 |   0.866510E-04 |   0.959639E-04 |   0.159133E-01 |   0.100000E-04
  11 |   0.677939E+00 |   0.238282E-04 |   0.161540E-04 |   0.522366E-04 |   0.471512E-02 |   0.100000E-04
  12 |   0.633881E+00 |   0.102356E-04 |   0.648815E-05 |   0.218079E-04 |   0.821808E-03 |   0.100000E-04
  13 |   0.384076E+00 |   0.727381E-05 |   0.279370E-05 |   0.149924E-04 |   0.388406E-03 |   0.100000E-04
  14 |   0.428115E+00 |   0.165617E-05 |   0.709031E-06 |   0.874897E-05 |   0.132269E-03 |   0.100000E-04
  15 |   0.440341E+00 |   0.354553E-06 |   0.156124E-06 |   0.464504E-05 |   0.372840E-04 |   0.100000E-04
  16 |   0.779376E-01 |   0.218812E-05 |   0.170537E-06 |   0.358200E-05 |   0.221715E-04 |   0.100000E-04
  17 |   0.319880E+00 |   0.140965E-06 |   0.450917E-07 |   0.184661E-05 |   0.589244E-05 |   0.100000E-04

 Charges are converged, EXIT

%%%% DENSITY %%%%%%%%%%%%%%%%%%%%%%%%%%%%%%%%%%%%%%%%%%%%%%%%%%%%%%%%%%%%%%%%%%%

 density label              = velectrostatic                                    

 integral of density        =   -209.8078230    

%%%% CHARGES %%%%%%%%%%%%%%%%%%%%%%%%%%%%%%%%%%%%%%%%%%%%%%%%%%%%%%%%%%%%%%%%%%%

 total number of charges    =             34

 total charge               =     -1.0000000

%%%% DENSITY %%%%%%%%%%%%%%%%%%%%%%%%%%%%%%%%%%%%%%%%%%%%%%%%%%%%%%%%%%%%%%%%%%%

 density label              = vsoftcavity                                       

 integral of density        =    89.79904659    

%%%% DENSITY %%%%%%%%%%%%%%%%%%%%%%%%%%%%%%%%%%%%%%%%%%%%%%%%%%%%%%%%%%%%%%%%%%%

 density label              = dvtot                                             

 integral of density        =    1786.238933    

%%%% ELECTRONS %%%%%%%%%%%%%%%%%%%%%%%%%%%%%%%%%%%%%%%%%%%%%%%%%%%%%%%%%%%%%%%%%

 number of electrons        =             24

 total electronic charge    =     24.0000000

%%%% ELECTRONS %%%%%%%%%%%%%%%%%%%%%%%%%%%%%%%%%%%%%%%%%%%%%%%%%%%%%%%%%%%%%%%%%

 number of electrons        =             24

 total electronic charge    =     24.0000000

%%%% CHARGES %%%%%%%%%%%%%%%%%%%%%%%%%%%%%%%%%%%%%%%%%%%%%%%%%%%%%%%%%%%%%%%%%%%

 total number of charges    =             34

 total charge               =     -1.0000000

%%%% CHARGES %%%%%%%%%%%%%%%%%%%%%%%%%%%%%%%%%%%%%%%%%%%%%%%%%%%%%%%%%%%%%%%%%%%

 total number of charges    =             34

 total charge               =     -1.0000000

%%%% BOUNDARY %%%%%%%%%%%%%%%%%%%%%%%%%%%%%%%%%%%%%%%%%%%%%%%%%%%%%%%%%%%%%%%%%%

 boundary label             = solvent             
 boundary mode              = electronic          

 using the optimal SCCS function:
 rhomax                     =      0.0050000
 rhomin                     =      0.0001000

 volume of the QM region    =    612.3051260

 surface of the QM region   =    370.3576208

%%%% DENSITY %%%%%%%%%%%%%%%%%%%%%%%%%%%%%%%%%%%%%%%%%%%%%%%%%%%%%%%%%%%%%%%%%%%

 density label              = vreference                                        

 integral of density        =   -1906.247710    

%%%% COMPUTE ELECTROSTATIC POTENTIAL %%%%%%%%%%%%%%%%%%%%%%%%%%%%%%%%%%%%%%%%%%%

 Warning: Bad guess with residual norm =   0.924527E+04, reset to no guess

   i |      alpha     |       pAp      |      rzold     |    delta_qm    |    delta_en    |       tol
 ---------------------------------------------------------------------------------------------------------
   1 |   0.821643E+00 |   0.113479E+03 |   0.932395E+02 |   0.613325E-01 |   0.650018E+04 |   0.100000E-04
   2 |   0.496719E-01 |   0.629054E+04 |   0.312463E+03 |   0.714536E-02 |   0.882250E+02 |   0.100000E-04
   3 |   0.130523E+00 |   0.108203E+02 |   0.141231E+01 |   0.233260E-02 |   0.940207E+01 |   0.100000E-04
   4 |   0.174198E+00 |   0.735087E+00 |   0.128051E+00 |   0.122651E-02 |   0.259949E+01 |   0.100000E-04
   5 |   0.261289E+00 |   0.336231E-01 |   0.878533E-02 |   0.719197E-03 |   0.893798E+00 |   0.100000E-04
   6 |   0.248985E+00 |   0.113839E-01 |   0.283442E-02 |   0.426670E-03 |   0.314578E+00 |   0.100000E-04
   7 |   0.222909E+00 |   0.662312E-02 |   0.147636E-02 |   0.245423E-03 |   0.104082E+00 |   0.100000E-04
   8 |   0.336872E+00 |   0.573425E-03 |   0.193171E-03 |   0.167149E-03 |   0.482783E-01 |   0.100000E-04
   9 |   0.491172E+00 |   0.997312E-04 |   0.489852E-04 |   0.106913E-03 |   0.197516E-01 |   0.100000E-04
  10 |   0.682524E+00 |   0.370024E-04 |   0.252550E-04 |   0.454558E-04 |   0.357045E-02 |   0.100000E-04
  11 |   0.414230E+00 |   0.205972E-04 |   0.853196E-05 |   0.260482E-04 |   0.117246E-02 |   0.100000E-04
  12 |   0.261210E+00 |   0.104463E-04 |   0.272868E-05 |   0.198299E-04 |   0.679490E-03 |   0.100000E-04
  13 |   0.318955E+00 |   0.254448E-05 |   0.811574E-06 |   0.128452E-04 |   0.285120E-03 |   0.100000E-04
  14 |   0.393618E+00 |   0.745008E-06 |   0.293249E-06 |   0.681812E-05 |   0.803291E-04 |   0.100000E-04
  15 |   0.122112E+00 |   0.120060E-05 |   0.146607E-06 |   0.593384E-05 |   0.608437E-04 |   0.100000E-04
  16 |   0.132824E+00 |   0.143838E-05 |   0.191052E-06 |   0.406223E-05 |   0.285150E-04 |   0.100000E-04
  17 |   0.389370E+00 |   0.847055E-07 |   0.329818E-07 |   0.234544E-05 |   0.950588E-05 |   0.100000E-04

 Charges are converged, EXIT

%%%% DENSITY %%%%%%%%%%%%%%%%%%%%%%%%%%%%%%%%%%%%%%%%%%%%%%%%%%%%%%%%%%%%%%%%%%%

 density label              = velectrostatic                                    

 integral of density        =   -211.4953336    

%%%% CHARGES %%%%%%%%%%%%%%%%%%%%%%%%%%%%%%%%%%%%%%%%%%%%%%%%%%%%%%%%%%%%%%%%%%%

 total number of charges    =             34

 total charge               =     -1.0000000

%%%% DENSITY %%%%%%%%%%%%%%%%%%%%%%%%%%%%%%%%%%%%%%%%%%%%%%%%%%%%%%%%%%%%%%%%%%%

 density label              = vsoftcavity                                       

 integral of density        =    49.58116515    

%%%% DENSITY %%%%%%%%%%%%%%%%%%%%%%%%%%%%%%%%%%%%%%%%%%%%%%%%%%%%%%%%%%%%%%%%%%%

 density label              = dvtot                                             

 integral of density        =    1744.333541    

%%%% ELECTRONS %%%%%%%%%%%%%%%%%%%%%%%%%%%%%%%%%%%%%%%%%%%%%%%%%%%%%%%%%%%%%%%%%

 number of electrons        =             24

 total electronic charge    =     24.0000000

%%%% ELECTRONS %%%%%%%%%%%%%%%%%%%%%%%%%%%%%%%%%%%%%%%%%%%%%%%%%%%%%%%%%%%%%%%%%

 number of electrons        =             24

 total electronic charge    =     24.0000000

%%%% CHARGES %%%%%%%%%%%%%%%%%%%%%%%%%%%%%%%%%%%%%%%%%%%%%%%%%%%%%%%%%%%%%%%%%%%

 total number of charges    =             34

 total charge               =     -1.0000000

%%%% CHARGES %%%%%%%%%%%%%%%%%%%%%%%%%%%%%%%%%%%%%%%%%%%%%%%%%%%%%%%%%%%%%%%%%%%

 total number of charges    =             34

 total charge               =     -1.0000000

%%%% BOUNDARY %%%%%%%%%%%%%%%%%%%%%%%%%%%%%%%%%%%%%%%%%%%%%%%%%%%%%%%%%%%%%%%%%%

 boundary label             = solvent             
 boundary mode              = electronic          

 using the optimal SCCS function:
 rhomax                     =      0.0050000
 rhomin                     =      0.0001000

 volume of the QM region    =    588.8590657

 surface of the QM region   =    365.4044288

%%%% DENSITY %%%%%%%%%%%%%%%%%%%%%%%%%%%%%%%%%%%%%%%%%%%%%%%%%%%%%%%%%%%%%%%%%%%

 density label              = vreference                                        

 integral of density        =   -1906.247710    

%%%% COMPUTE ELECTROSTATIC POTENTIAL %%%%%%%%%%%%%%%%%%%%%%%%%%%%%%%%%%%%%%%%%%%

 Warning: Bad guess with residual norm =   0.145992E+05, reset to no guess

   i |      alpha     |       pAp      |      rzold     |    delta_qm    |    delta_en    |       tol
 ---------------------------------------------------------------------------------------------------------
   1 |   0.836021E+00 |   0.112609E+03 |   0.941434E+02 |   0.776699E-01 |   0.104244E+05 |   0.100000E-04
   2 |   0.421766E-01 |   0.811497E+04 |   0.342262E+03 |   0.107994E-01 |   0.201530E+03 |   0.100000E-04
   3 |   0.108326E+00 |   0.211627E+02 |   0.229247E+01 |   0.293855E-02 |   0.149215E+02 |   0.100000E-04
   4 |   0.156906E+00 |   0.102368E+01 |   0.160621E+00 |   0.148421E-02 |   0.380657E+01 |   0.100000E-04
   5 |   0.211409E+00 |   0.564110E-01 |   0.119258E-01 |   0.930851E-03 |   0.149728E+01 |   0.100000E-04
   6 |   0.200786E+00 |   0.208514E-01 |   0.418668E-02 |   0.584531E-03 |   0.590416E+00 |   0.100000E-04
   7 |   0.253700E+00 |   0.761047E-02 |   0.193077E-02 |   0.405807E-03 |   0.284566E+00 |   0.100000E-04
   8 |   0.313305E+00 |   0.122935E-02 |   0.385160E-03 |   0.342369E-03 |   0.202550E+00 |   0.100000E-04
   9 |   0.503980E+00 |   0.223974E-03 |   0.112878E-03 |   0.264434E-03 |   0.120831E+00 |   0.100000E-04
  10 |   0.778254E+00 |   0.110893E-03 |   0.863032E-04 |   0.139774E-03 |   0.337598E-01 |   0.100000E-04
  11 |   0.396459E+00 |   0.175302E-03 |   0.694999E-04 |   0.120639E-03 |   0.251490E-01 |   0.100000E-04
  12 |   0.310215E+00 |   0.116882E-03 |   0.362586E-04 |   0.109384E-03 |   0.206752E-01 |   0.100000E-04
  13 |   0.404300E+00 |   0.393165E-04 |   0.158957E-04 |   0.897907E-04 |   0.139318E-01 |   0.100000E-04
  14 |   0.432774E+00 |   0.337820E-04 |   0.146200E-04 |   0.809293E-04 |   0.113176E-01 |   0.100000E-04
  15 |   0.315527E+00 |   0.443021E-04 |   0.139785E-04 |   0.618876E-04 |   0.661837E-02 |   0.100000E-04
  16 |   0.620831E-01 |   0.285506E-03 |   0.177251E-04 |   0.691321E-04 |   0.825855E-02 |   0.100000E-04
  17 |   0.298237E+00 |   0.299277E-04 |   0.892556E-05 |   0.440204E-04 |   0.334850E-02 |   0.100000E-04
  18 |   0.384904E+00 |   0.829250E-05 |   0.319182E-05 |   0.289209E-04 |   0.144533E-02 |   0.100000E-04
  19 |   0.505137E+00 |   0.199724E-05 |   0.100888E-05 |   0.181377E-04 |   0.568469E-03 |   0.100000E-04
  20 |   0.572687E+00 |   0.513131E-06 |   0.293863E-06 |   0.106281E-04 |   0.195188E-03 |   0.100000E-04
  21 |   0.546866E+00 |   0.242975E-06 |   0.132875E-06 |   0.537780E-05 |   0.499751E-04 |   0.100000E-04
  22 |   0.453353E+00 |   0.132123E-06 |   0.598986E-07 |   0.267551E-05 |   0.123696E-04 |   0.100000E-04
  23 |   0.423612E+00 |   0.250449E-07 |   0.106093E-07 |   0.174774E-05 |   0.527834E-05 |   0.100000E-04

 Charges are converged, EXIT

%%%% DENSITY %%%%%%%%%%%%%%%%%%%%%%%%%%%%%%%%%%%%%%%%%%%%%%%%%%%%%%%%%%%%%%%%%%%

 density label              = velectrostatic                                    

 integral of density        =   -209.7191215    

%%%% CHARGES %%%%%%%%%%%%%%%%%%%%%%%%%%%%%%%%%%%%%%%%%%%%%%%%%%%%%%%%%%%%%%%%%%%

 total number of charges    =             34

 total charge               =     -1.0000000

%%%% DENSITY %%%%%%%%%%%%%%%%%%%%%%%%%%%%%%%%%%%%%%%%%%%%%%%%%%%%%%%%%%%%%%%%%%%

 density label              = vsoftcavity                                       

 integral of density        =    35.98990418    

%%%% DENSITY %%%%%%%%%%%%%%%%%%%%%%%%%%%%%%%%%%%%%%%%%%%%%%%%%%%%%%%%%%%%%%%%%%%

 density label              = dvtot                                             

 integral of density        =    1732.518492    

%%%% ELECTRONS %%%%%%%%%%%%%%%%%%%%%%%%%%%%%%%%%%%%%%%%%%%%%%%%%%%%%%%%%%%%%%%%%

 number of electrons        =             24

 total electronic charge    =     24.0000000

%%%% ELECTRONS %%%%%%%%%%%%%%%%%%%%%%%%%%%%%%%%%%%%%%%%%%%%%%%%%%%%%%%%%%%%%%%%%

 number of electrons        =             24

 total electronic charge    =     24.0000000

%%%% CHARGES %%%%%%%%%%%%%%%%%%%%%%%%%%%%%%%%%%%%%%%%%%%%%%%%%%%%%%%%%%%%%%%%%%%

 total number of charges    =             34

 total charge               =     -1.0000000

%%%% CHARGES %%%%%%%%%%%%%%%%%%%%%%%%%%%%%%%%%%%%%%%%%%%%%%%%%%%%%%%%%%%%%%%%%%%

 total number of charges    =             34

 total charge               =     -1.0000000

%%%% BOUNDARY %%%%%%%%%%%%%%%%%%%%%%%%%%%%%%%%%%%%%%%%%%%%%%%%%%%%%%%%%%%%%%%%%%

 boundary label             = solvent             
 boundary mode              = electronic          

 using the optimal SCCS function:
 rhomax                     =      0.0050000
 rhomin                     =      0.0001000

 volume of the QM region    =    586.4093343

 surface of the QM region   =    365.2290056

%%%% DENSITY %%%%%%%%%%%%%%%%%%%%%%%%%%%%%%%%%%%%%%%%%%%%%%%%%%%%%%%%%%%%%%%%%%%

 density label              = vreference                                        

 integral of density        =   -1906.247710    

%%%% COMPUTE ELECTROSTATIC POTENTIAL %%%%%%%%%%%%%%%%%%%%%%%%%%%%%%%%%%%%%%%%%%%

 Warning: Bad guess with residual norm =   0.157584E+05, reset to no guess

   i |      alpha     |       pAp      |      rzold     |    delta_qm    |    delta_en    |       tol
 ---------------------------------------------------------------------------------------------------------
   1 |   0.838619E+00 |   0.111864E+03 |   0.938117E+02 |   0.808525E-01 |   0.112962E+05 |   0.100000E-04
   2 |   0.413558E-01 |   0.826895E+04 |   0.341969E+03 |   0.116026E-01 |   0.232623E+03 |   0.100000E-04
   3 |   0.106853E+00 |   0.230175E+02 |   0.245948E+01 |   0.319867E-02 |   0.176800E+02 |   0.100000E-04
   4 |   0.153181E+00 |   0.117314E+01 |   0.179702E+00 |   0.154701E-02 |   0.413553E+01 |   0.100000E-04
   5 |   0.214052E+00 |   0.584485E-01 |   0.125110E-01 |   0.958218E-03 |   0.158662E+01 |   0.100000E-04
   6 |   0.203593E+00 |   0.207303E-01 |   0.422054E-02 |   0.617729E-03 |   0.659386E+00 |   0.100000E-04
   7 |   0.239625E+00 |   0.873767E-02 |   0.209377E-02 |   0.454790E-03 |   0.357409E+00 |   0.100000E-04
   8 |   0.314076E+00 |   0.139026E-02 |   0.436646E-03 |   0.395283E-03 |   0.269998E+00 |   0.100000E-04
   9 |   0.503261E+00 |   0.267830E-03 |   0.134788E-03 |   0.313433E-03 |   0.169759E+00 |   0.100000E-04
  10 |   0.812871E+00 |   0.131311E-03 |   0.106739E-03 |   0.163462E-03 |   0.461717E-01 |   0.100000E-04
  11 |   0.440640E+00 |   0.194315E-03 |   0.856230E-04 |   0.146993E-03 |   0.373368E-01 |   0.100000E-04
  12 |   0.348433E+00 |   0.114504E-03 |   0.398968E-04 |   0.125262E-03 |   0.271131E-01 |   0.100000E-04
  13 |   0.435548E+00 |   0.428882E-04 |   0.186798E-04 |   0.107543E-03 |   0.199851E-01 |   0.100000E-04
  14 |   0.413015E+00 |   0.490378E-04 |   0.202533E-04 |   0.961501E-04 |   0.159751E-01 |   0.100000E-04
  15 |   0.253185E+00 |   0.649475E-04 |   0.164437E-04 |   0.676562E-04 |   0.790969E-02 |   0.100000E-04
  16 |   0.635974E-01 |   0.536896E-03 |   0.341452E-04 |   0.743905E-04 |   0.956266E-02 |   0.100000E-04
  17 |   0.295054E+00 |   0.346630E-04 |   0.102275E-04 |   0.518012E-04 |   0.463686E-02 |   0.100000E-04
  18 |   0.338428E+00 |   0.129665E-04 |   0.438822E-05 |   0.347039E-04 |   0.208114E-02 |   0.100000E-04
  19 |   0.487701E+00 |   0.286729E-05 |   0.139838E-05 |   0.222037E-04 |   0.851914E-03 |   0.100000E-04
  20 |   0.565359E+00 |   0.730294E-06 |   0.412879E-06 |   0.132690E-04 |   0.304243E-03 |   0.100000E-04
  21 |   0.562337E+00 |   0.333560E-06 |   0.187573E-06 |   0.698410E-05 |   0.842878E-04 |   0.100000E-04
  22 |   0.452765E+00 |   0.205041E-06 |   0.928353E-07 |   0.351502E-05 |   0.213500E-04 |   0.100000E-04
  23 |   0.467072E+00 |   0.355754E-07 |   0.166163E-07 |   0.222160E-05 |   0.852852E-05 |   0.100000E-04

 Charges are converged, EXIT

%%%% DENSITY %%%%%%%%%%%%%%%%%%%%%%%%%%%%%%%%%%%%%%%%%%%%%%%%%%%%%%%%%%%%%%%%%%%

 density label              = velectrostatic                                    

 integral of density        =   -207.4150618    

%%%% CHARGES %%%%%%%%%%%%%%%%%%%%%%%%%%%%%%%%%%%%%%%%%%%%%%%%%%%%%%%%%%%%%%%%%%%

 total number of charges    =             34

 total charge               =     -1.0000000

%%%% DENSITY %%%%%%%%%%%%%%%%%%%%%%%%%%%%%%%%%%%%%%%%%%%%%%%%%%%%%%%%%%%%%%%%%%%

 density label              = vsoftcavity                                       

 integral of density        =    35.24094841    

%%%% DENSITY %%%%%%%%%%%%%%%%%%%%%%%%%%%%%%%%%%%%%%%%%%%%%%%%%%%%%%%%%%%%%%%%%%%

 density label              = dvtot                                             

 integral of density        =    1734.073596    

%%%% ELECTRONS %%%%%%%%%%%%%%%%%%%%%%%%%%%%%%%%%%%%%%%%%%%%%%%%%%%%%%%%%%%%%%%%%

 number of electrons        =             24

 total electronic charge    =     24.0000000

%%%% ELECTRONS %%%%%%%%%%%%%%%%%%%%%%%%%%%%%%%%%%%%%%%%%%%%%%%%%%%%%%%%%%%%%%%%%

 number of electrons        =             24

 total electronic charge    =     24.0000000

%%%% CHARGES %%%%%%%%%%%%%%%%%%%%%%%%%%%%%%%%%%%%%%%%%%%%%%%%%%%%%%%%%%%%%%%%%%%

 total number of charges    =             34

 total charge               =     -1.0000000

%%%% CHARGES %%%%%%%%%%%%%%%%%%%%%%%%%%%%%%%%%%%%%%%%%%%%%%%%%%%%%%%%%%%%%%%%%%%

 total number of charges    =             34

 total charge               =     -1.0000000

%%%% BOUNDARY %%%%%%%%%%%%%%%%%%%%%%%%%%%%%%%%%%%%%%%%%%%%%%%%%%%%%%%%%%%%%%%%%%

 boundary label             = solvent             
 boundary mode              = electronic          

 using the optimal SCCS function:
 rhomax                     =      0.0050000
 rhomin                     =      0.0001000

 volume of the QM region    =    586.4093343

 surface of the QM region   =    365.2290056

%%%% DENSITY %%%%%%%%%%%%%%%%%%%%%%%%%%%%%%%%%%%%%%%%%%%%%%%%%%%%%%%%%%%%%%%%%%%

 density label              = dvtot                                             

 integral of density        =    1734.073596    

%%%% DENSITY %%%%%%%%%%%%%%%%%%%%%%%%%%%%%%%%%%%%%%%%%%%%%%%%%%%%%%%%%%%%%%%%%%%

 density label              = vreference                                        

 integral of density        =   -1906.247710    

%%%% DENSITY %%%%%%%%%%%%%%%%%%%%%%%%%%%%%%%%%%%%%%%%%%%%%%%%%%%%%%%%%%%%%%%%%%%

 density label              = velectrostatic                                    

 integral of density        =   -207.4150618    

%%%% CHARGES %%%%%%%%%%%%%%%%%%%%%%%%%%%%%%%%%%%%%%%%%%%%%%%%%%%%%%%%%%%%%%%%%%%

 total number of charges    =             34

 total charge               =     -1.0000000

%%%% DENSITY %%%%%%%%%%%%%%%%%%%%%%%%%%%%%%%%%%%%%%%%%%%%%%%%%%%%%%%%%%%%%%%%%%%

 density label              = vsoftcavity                                       

 integral of density        =    35.24094841    
