
     Program PWSCF v.6.7MaX starts on  4Mar2021 at 15:49: 7 

     This program is part of the open-source Quantum ESPRESSO suite
     for quantum simulation of materials; please cite
         "P. Giannozzi et al., J. Phys.:Condens. Matter 21 395502 (2009);
         "P. Giannozzi et al., J. Phys.:Condens. Matter 29 465901 (2017);
          URL http://www.quantum-espresso.org", 
     in publications or presentations arising from this work. More details at
     http://www.quantum-espresso.org/quote

     Parallel version (MPI), running on     1 processors

     MPI processes distributed on     1 nodes
     Waiting for input...
     Reading input from standard input

     Current dimensions of program PWSCF are:
     Max number of different atomic species (ntypx) = 10
     Max number of k-points (npk) =  40000
     Max angular momentum in pseudopotentials (lmaxx) =  3
     file C.pbe-rrkjus.UPF: wavefunction(s)  2S 2P renormalized
     file H.pbe-rrkjus.UPF: wavefunction(s)  1S renormalized
     file N.pbe-rrkjus.UPF: wavefunction(s)  2S renormalized
     file O.pbe-rrkjus.UPF: wavefunction(s)  2S renormalized

     gamma-point specific algorithms are used

     Subspace diagonalization in iterative solution of the eigenvalue problem:
     a serial algorithm will be used


     G-vector sticks info
     --------------------
     sticks:   dense  smooth     PW     G-vecs:    dense   smooth      PW
     Sum        2385     949    241                87655    22119    2777



     bravais-lattice index     =            1
     lattice parameter (alat)  =      10.0000  a.u.
     unit-cell volume          =    1000.0000 (a.u.)^3
     number of atoms/cell      =           10
     number of atomic types    =            4
     number of electrons       =        24.00
     number of Kohn-Sham states=           12
     kinetic-energy cutoff     =      30.0000  Ry
     charge density cutoff     =     300.0000  Ry
     scf convergence threshold =      5.0E-06
     mixing beta               =       0.7000
     number of iterations used =            8  plain     mixing
     Exchange-correlation= SLA  PW   PBE  PBE
                           (   1   4   3   4   0   0   0)


     Environ Module
     ==============

     Plese cite
         O. Andreussi, I. Dabo and N. Marzari, J. Chem. Phys. 136, 064102 (2012)         
     in publications or presentations arising from this work.

     compensation onset threshold      =               0.1000E+03 

     Electrostatic Setup
     -------------------
     electrostatic problem to solve    = poisson                  
     numerical solver adopted          = direct                   
     type of auxiliary density adopted = none                     
     type of core tool for poisson     = fft                      


     Assuming isolated system, Martyna-Tuckerman method


     celldm(1)=  10.000000  celldm(2)=   0.000000  celldm(3)=   0.000000
     celldm(4)=   0.000000  celldm(5)=   0.000000  celldm(6)=   0.000000

     crystal axes: (cart. coord. in units of alat)
               a(1) = (   1.000000   0.000000   0.000000 )  
               a(2) = (   0.000000   1.000000   0.000000 )  
               a(3) = (   0.000000   0.000000   1.000000 )  

     reciprocal axes: (cart. coord. in units 2 pi/alat)
               b(1) = (  1.000000  0.000000  0.000000 )  
               b(2) = (  0.000000  1.000000  0.000000 )  
               b(3) = (  0.000000  0.000000  1.000000 )  


     PseudoPot. # 1 for C  read from file:
     ../../../pseudo/C.pbe-rrkjus.UPF
     MD5 check sum: c9ac5a99bc85b198593446162950cd17
     Pseudo is Ultrasoft, Zval =  4.0
     Generated by new atomic code, or converted to UPF format
     Using radial grid of  627 points,  4 beta functions with: 
                l(1) =   0
                l(2) =   0
                l(3) =   1
                l(4) =   1
     Q(r) pseudized with 0 coefficients 


     PseudoPot. # 2 for H  read from file:
     ../../../pseudo/H.pbe-rrkjus.UPF
     MD5 check sum: 2d52a7f45632fd764c17cc6affed14c8
     Pseudo is Ultrasoft, Zval =  1.0
     Generated by new atomic code, or converted to UPF format
     Using radial grid of 1061 points,  2 beta functions with: 
                l(1) =   0
                l(2) =   0
     Q(r) pseudized with 0 coefficients 


     PseudoPot. # 3 for N  read from file:
     ../../../pseudo/N.pbe-rrkjus.UPF
     MD5 check sum: 28c76d763763edb36c62a6ca2be9aebd
     Pseudo is Ultrasoft, Zval =  5.0
     Generated by new atomic code, or converted to UPF format
     Using radial grid of 1257 points,  4 beta functions with: 
                l(1) =   0
                l(2) =   0
                l(3) =   1
                l(4) =   1
     Q(r) pseudized with 0 coefficients 


     PseudoPot. # 4 for O  read from file:
     ../../../pseudo/O.pbe-rrkjus.UPF
     MD5 check sum: fadcf19ee70a498d3030e2e79cf929a4
     Pseudo is Ultrasoft, Zval =  6.0
     Generated by new atomic code, or converted to UPF format
     Using radial grid of 1269 points,  4 beta functions with: 
                l(1) =   0
                l(2) =   0
                l(3) =   1
                l(4) =   1
     Q(r) pseudized with 0 coefficients 


     atomic species   valence    mass     pseudopotential
        C              4.00    12.00000     C ( 1.00)
        H              1.00     1.00000     H ( 1.00)
        N              5.00    14.00000     N ( 1.00)
        O              6.00    16.00000     O ( 1.00)

     No symmetry found



   Cartesian axes

     site n.     atom                  positions (alat units)
         1           C   tau(   1) = (   0.0000000   0.0000000   0.0000000  )
         2           C   tau(   2) = (   0.0000000   0.0000000   0.2910178  )
         3           N   tau(   3) = (   0.2341938   0.0000000  -0.1090048  )
         4           H   tau(   4) = (   0.0953235  -0.1650932   0.3584180  )
         5           H   tau(   5) = (  -0.1906366  -0.0000060   0.3584181  )
         6           H   tau(   6) = (   0.0953131   0.1650992   0.3584180  )
         7           O   tau(   7) = (  -0.1968004  -0.0000037  -0.1282619  )
         8           H   tau(   8) = (   0.2526261  -0.0000030  -0.2951095  )
         9           H   tau(   9) = (   0.3889291   0.0000268  -0.0051433  )
        10           H   tau(  10) = (  -0.1540732  -0.0000089  -0.3045722  )

     number of k points=     1
                       cart. coord. in units 2pi/alat
        k(    1) = (   0.0000000   0.0000000   0.0000000), wk =   2.0000000

     Dense  grid:    43828 G-vectors     FFT dimensions: (  60,  60,  60)

     Smooth grid:    11060 G-vectors     FFT dimensions: (  36,  36,  36)

     Estimated max dynamical RAM per process >      79.39 MB

     Initial potential from superposition of free atoms

     starting charge   24.42266, renormalised to   24.00000
     Starting wfcs are   22 randomized atomic wfcs

     total cpu time spent up to now is        6.8 secs

     Self-consistent Calculation

     iteration #  1     ecut=    30.00 Ry     beta= 0.70
     Davidson diagonalization with overlap
     ethr =  1.00E-02,  avg # of iterations =  3.0

     add environment contribution to local potential

     total cpu time spent up to now is        7.9 secs

     total energy              =     -80.51209339 Ry
     estimated scf accuracy    <       2.73212072 Ry
     electrostatic embedding   =       0.00000000 Ry
     correction to one-el term =      -0.00000000 Ry

     iteration #  2     ecut=    30.00 Ry     beta= 0.70
     Davidson diagonalization with overlap
     ethr =  1.00E-02,  avg # of iterations =  3.0

     add environment contribution to local potential

     total cpu time spent up to now is        9.1 secs

     total energy              =     -79.54504052 Ry
     estimated scf accuracy    <       0.36329654 Ry
     electrostatic embedding   =       1.54016884 Ry
     correction to one-el term =      -1.92539925 Ry

     iteration #  3     ecut=    30.00 Ry     beta= 0.70
     Davidson diagonalization with overlap
     ethr =  1.51E-03,  avg # of iterations =  2.0

     add environment contribution to local potential

     total cpu time spent up to now is       10.3 secs

     total energy              =     -79.59038915 Ry
     estimated scf accuracy    <       0.02856646 Ry
     electrostatic embedding   =       1.55175761 Ry
     correction to one-el term =      -2.02265334 Ry

     iteration #  4     ecut=    30.00 Ry     beta= 0.70
     Davidson diagonalization with overlap
     ethr =  1.19E-04,  avg # of iterations =  4.0

     add environment contribution to local potential

     total cpu time spent up to now is       11.4 secs

     total energy              =     -79.60748090 Ry
     estimated scf accuracy    <       0.00628662 Ry
     electrostatic embedding   =       1.55892897 Ry
     correction to one-el term =      -2.07051347 Ry

     iteration #  5     ecut=    30.00 Ry     beta= 0.70
     Davidson diagonalization with overlap
     ethr =  2.62E-05,  avg # of iterations =  6.0

     add environment contribution to local potential

     total cpu time spent up to now is       12.6 secs

     total energy              =     -79.61128008 Ry
     estimated scf accuracy    <       0.00685390 Ry
     electrostatic embedding   =       1.55728740 Ry
     correction to one-el term =      -2.09162569 Ry

     iteration #  6     ecut=    30.00 Ry     beta= 0.70
     Davidson diagonalization with overlap
     ethr =  2.62E-05,  avg # of iterations =  2.0

     negative rho (up, down):  1.457E-08 0.000E+00

     add environment contribution to local potential

     total cpu time spent up to now is       13.8 secs

     total energy              =     -79.60952816 Ry
     estimated scf accuracy    <       0.00366857 Ry
     electrostatic embedding   =       1.55875781 Ry
     correction to one-el term =      -2.09777917 Ry

     iteration #  7     ecut=    30.00 Ry     beta= 0.70
     Davidson diagonalization with overlap
     ethr =  1.53E-05,  avg # of iterations =  6.0

     add environment contribution to local potential

     total cpu time spent up to now is       15.0 secs

     total energy              =     -79.61088990 Ry
     estimated scf accuracy    <       0.00083705 Ry
     electrostatic embedding   =       1.56071167 Ry
     correction to one-el term =      -2.09842905 Ry

     iteration #  8     ecut=    30.00 Ry     beta= 0.70
     Davidson diagonalization with overlap
     ethr =  3.49E-06,  avg # of iterations =  5.0

     add environment contribution to local potential

     total cpu time spent up to now is       16.1 secs

     total energy              =     -79.61104048 Ry
     estimated scf accuracy    <       0.00004473 Ry
     electrostatic embedding   =       1.55973314 Ry
     correction to one-el term =      -2.09654444 Ry

     iteration #  9     ecut=    30.00 Ry     beta= 0.70
     Davidson diagonalization with overlap
     ethr =  1.86E-07,  avg # of iterations =  6.0

     the potential shift due to the Gaussian-smeared nuclei is    -0.0198 ev

     total cpu time spent up to now is       16.8 secs

     End of self-consistent calculation

          k = 0.0000 0.0000 0.0000 (  1389 PWs)   bands (ev):

   -32.3380 -26.6541 -21.8624 -19.6843 -18.2727 -17.2529 -15.1235 -13.9054
   -12.9573 -12.7594 -12.1101 -10.7207

     highest occupied level (ev):   -10.7207

!    total energy              =     -79.61108291 Ry
     estimated scf accuracy    <       0.00000325 Ry

     The total energy is the sum of the following terms:
     one-electron contribution =    -418.08932795 Ry
     hartree contribution      =     208.27674660 Ry
     xc contribution           =     -23.00799519 Ry
     ewald contribution        =     153.74645456 Ry
     electrostatic embedding   =       1.55947883 Ry
     correction to one-el term =      -2.09643977 Ry

     convergence has been achieved in   9 iterations
 forces lc
       1   -0.0000    0.0000    0.0000
       2    0.0000   -0.0000   -0.0000
       3   -0.0001   -0.0035   -0.0014
       4   -0.0000   -0.0000    0.0000
       5    0.0000    0.0000   -0.0000
       6    0.0000    0.0000   -0.0000
       7    1.2782   -0.9586    0.4878
       8   -0.0000   -0.0000   -0.0000
       9   -0.0000   -0.0000   -0.0000
      10    0.0000   -0.0000   -0.0000
 forces mt   2.0000000000000000     
       1    0.0028    0.0000    0.0001
       2    0.0027    0.0000    0.0011
       3    0.0100    0.0000   -0.0003
       4    0.0029   -0.0026    0.0002
       5   -0.0023   -0.0000    0.0002
       6    0.0029    0.0026    0.0002
       7   -0.0141   -0.0000   -0.0005
       8    0.0019   -0.0000   -0.0002
       9    0.0013    0.0000    0.0000
      10   -0.0025   -0.0000   -0.0002

     Forces acting on atoms (cartesian axes, Ry/au):

     atom    1 type  1   force =     0.05131940    0.09623443    0.03269471
     atom    2 type  1   force =    -0.17761999    0.09624993    0.14283697
     atom    3 type  3   force =     0.46222842    0.09276822   -0.31064468
     atom    4 type  2   force =    -0.14987809    0.07186434    0.03214011
     atom    5 type  2   force =    -0.23727189    0.09619082    0.01431404
     atom    6 type  2   force =    -0.14988422    0.12051398    0.03212818
     atom    7 type  4   force =     0.59667894   -0.86234671    0.03494371
     atom    8 type  2   force =     0.00755841    0.09617200    0.02662696
     atom    9 type  2   force =    -0.16500897    0.09617906   -0.03511839
     atom   10 type  2   force =    -0.23812200    0.09617394    0.03007839

     Total force =     1.319413     Total SCF correction =     0.001838

     Writing output data file ./tmp/pwscf.save/

     init_run     :      6.43s CPU      6.69s WALL (       1 calls)
     electrons    :      9.42s CPU     10.02s WALL (       1 calls)
     forces       :      1.59s CPU      1.68s WALL (       1 calls)

     Called by init_run:
     wfcinit      :      0.01s CPU      0.01s WALL (       1 calls)
     potinit      :      0.46s CPU      0.50s WALL (       1 calls)
     hinit0       :      5.09s CPU      5.22s WALL (       1 calls)

     Called by electrons:
     c_bands      :      0.22s CPU      0.27s WALL (       9 calls)
     sum_band     :      0.98s CPU      0.63s WALL (       9 calls)
     v_of_rho     :      0.67s CPU      0.76s WALL (      10 calls)
     newd         :      0.34s CPU      0.38s WALL (      10 calls)
     mix_rho      :      0.05s CPU      0.07s WALL (       9 calls)

     Called by c_bands:
     init_us_2    :      0.01s CPU      0.01s WALL (      19 calls)
     regterg      :      0.21s CPU      0.26s WALL (       9 calls)

     Called by *egterg:
     rdiaghg      :      0.01s CPU      0.01s WALL (      46 calls)
     h_psi        :      0.17s CPU      0.23s WALL (      47 calls)
     s_psi        :      0.01s CPU      0.01s WALL (      47 calls)
     g_psi        :      0.00s CPU      0.00s WALL (      37 calls)

     Called by h_psi:
     h_psi:calbec :      0.00s CPU      0.01s WALL (      47 calls)
     vloc_psi     :      0.15s CPU      0.15s WALL (      47 calls)
     add_vuspsi   :      0.01s CPU      0.07s WALL (      47 calls)

     General routines
     calbec       :      0.01s CPU      0.01s WALL (      60 calls)
     fft          :      3.98s CPU      4.24s WALL (     156 calls)
     ffts         :      0.01s CPU      0.01s WALL (      19 calls)
     fftw         :      0.14s CPU      0.14s WALL (     450 calls)
     interpolate  :      0.04s CPU      0.04s WALL (      10 calls)

     Parallel routines
     fft_scatt_xy :      0.37s CPU      0.37s WALL (      41 calls)
     fft_scatt_yz :      0.52s CPU      0.52s WALL (      41 calls)

     Environ routines
     calc_eelect  :      0.06s CPU      0.06s WALL (      18 calls)
     calc_velect  :      3.41s CPU      3.84s WALL (      16 calls)
     calc_felect  :      1.47s CPU      1.55s WALL (       1 calls)

     PWSCF        :     17.52s CPU     18.52s WALL


   This run was terminated on:  15:49:26   4Mar2021            

=------------------------------------------------------------------------------=
   JOB DONE.
=------------------------------------------------------------------------------=
