
     Program PWSCF v.6.7MaX starts on  1Oct2021 at 20:46: 3 

     This program is part of the open-source Quantum ESPRESSO suite
     for quantum simulation of materials; please cite
         "P. Giannozzi et al., J. Phys.:Condens. Matter 21 395502 (2009);
         "P. Giannozzi et al., J. Phys.:Condens. Matter 29 465901 (2017);
          URL http://www.quantum-espresso.org", 
     in publications or presentations arising from this work. More details at
     http://www.quantum-espresso.org/quote

     Parallel version (MPI), running on     1 processors

     MPI processes distributed on     1 nodes
     Reading input from charged.in

     Current dimensions of program PWSCF are:
     Max number of different atomic species (ntypx) = 10
     Max number of k-points (npk) =  40000
     Max angular momentum in pseudopotentials (lmaxx) =  3

     Reading input from environ.in

     ================================================================================

     Reading ENVIRON namelist

     Reading BOUNDARY namelist

     Checking boundary derivatives
     derivatives               = chain          ! SCCS default

     Reading ELECTROSTATIC namelist

     Setting up electrostatic problem
     problem                   = generalized    
     solver                    = cg             

     Checking PBC correction
     pbc_correction            = none           ! default

     ================================================================================
 
     file C.pbe-rrkjus.UPF: wavefunction(s)  2S 2P renormalized
     file H.pbe-rrkjus.UPF: wavefunction(s)  1S renormalized
     file N.pbe-rrkjus.UPF: wavefunction(s)  2S renormalized
     file O.pbe-rrkjus.UPF: wavefunction(s)  2S renormalized

     gamma-point specific algorithms are used

     Subspace diagonalization in iterative solution of the eigenvalue problem:
     a serial algorithm will be used

 
     G-vector sticks info
     --------------------
     sticks:   dense  smooth     PW     G-vecs:    dense   smooth      PW
     Sum        9549    3809    949               701475   177509   22119
 


     bravais-lattice index     =            1
     lattice parameter (alat)  =      20.0000  a.u.
     unit-cell volume          =    8000.0000 (a.u.)^3
     number of atoms/cell      =           10
     number of atomic types    =            4
     number of electrons       =        24.00
     number of Kohn-Sham states=           12
     kinetic-energy cutoff     =      30.0000  Ry
     charge density cutoff     =     300.0000  Ry
     scf convergence threshold =      5.0E-03
     mixing beta               =       0.7000
     number of iterations used =            8  plain     mixing
     Exchange-correlation= SLA  PW   PBE  PBE
                           (   1   4   3   4   0   0   0)
 

     Environ Module
     ==============

     Please cite
         O. Andreussi, I. Dabo and N. Marzari, J. Chem. Phys. 136, 064102 (2012)         
     in publications or presentations arising from this work.

     compensation onset threshold      =               0.1000E+03
     static permittivity               =                   100.00
     epsilon calculation mode          =               electronic

     Electrostatic Setup
     -------------------
     electrostatic problem to solve    = generalized             
     numerical solver adopted          = cg                      
     type of auxiliary density adopted = none                    
     type of core tool for poisson     = fft                     


     Assuming isolated system, Martyna-Tuckerman method


     celldm(1)=  20.000000  celldm(2)=   0.000000  celldm(3)=   0.000000
     celldm(4)=   0.000000  celldm(5)=   0.000000  celldm(6)=   0.000000

     crystal axes: (cart. coord. in units of alat)
               a(1) = (   1.000000   0.000000   0.000000 )  
               a(2) = (   0.000000   1.000000   0.000000 )  
               a(3) = (   0.000000   0.000000   1.000000 )  

     reciprocal axes: (cart. coord. in units 2 pi/alat)
               b(1) = (  1.000000  0.000000  0.000000 )  
               b(2) = (  0.000000  1.000000  0.000000 )  
               b(3) = (  0.000000  0.000000  1.000000 )  


     PseudoPot. # 1 for C  read from file:
     /home/simplogic86/Work/QE1/Environ/tests/../..//pseudo/C.pbe-rrkjus.UPF
     MD5 check sum: c9ac5a99bc85b198593446162950cd17
     Pseudo is Ultrasoft, Zval =  4.0
     Generated by new atomic code, or converted to UPF format
     Using radial grid of  627 points,  4 beta functions with: 
                l(1) =   0
                l(2) =   0
                l(3) =   1
                l(4) =   1
     Q(r) pseudized with 0 coefficients 


     PseudoPot. # 2 for H  read from file:
     /home/simplogic86/Work/QE1/Environ/tests/../..//pseudo/H.pbe-rrkjus.UPF
     MD5 check sum: 2d52a7f45632fd764c17cc6affed14c8
     Pseudo is Ultrasoft, Zval =  1.0
     Generated by new atomic code, or converted to UPF format
     Using radial grid of 1061 points,  2 beta functions with: 
                l(1) =   0
                l(2) =   0
     Q(r) pseudized with 0 coefficients 


     PseudoPot. # 3 for N  read from file:
     /home/simplogic86/Work/QE1/Environ/tests/../..//pseudo/N.pbe-rrkjus.UPF
     MD5 check sum: 28c76d763763edb36c62a6ca2be9aebd
     Pseudo is Ultrasoft, Zval =  5.0
     Generated by new atomic code, or converted to UPF format
     Using radial grid of 1257 points,  4 beta functions with: 
                l(1) =   0
                l(2) =   0
                l(3) =   1
                l(4) =   1
     Q(r) pseudized with 0 coefficients 


     PseudoPot. # 4 for O  read from file:
     /home/simplogic86/Work/QE1/Environ/tests/../..//pseudo/O.pbe-rrkjus.UPF
     MD5 check sum: fadcf19ee70a498d3030e2e79cf929a4
     Pseudo is Ultrasoft, Zval =  6.0
     Generated by new atomic code, or converted to UPF format
     Using radial grid of 1269 points,  4 beta functions with: 
                l(1) =   0
                l(2) =   0
                l(3) =   1
                l(4) =   1
     Q(r) pseudized with 0 coefficients 


     atomic species   valence    mass     pseudopotential
        C              4.00    12.00000     C ( 1.00)
        H              1.00     1.00000     H ( 1.00)
        N              5.00    14.00000     N ( 1.00)
        O              6.00    16.00000     O ( 1.00)

     No symmetry found



   Cartesian axes

     site n.     atom                  positions (alat units)
         1           C   tau(   1) = (   0.0000000   0.0000000   0.0000000  )
         2           C   tau(   2) = (   0.0000000   0.0000000   0.1455089  )
         3           N   tau(   3) = (   0.1170969   0.0000000  -0.0545024  )
         4           H   tau(   4) = (   0.0476617  -0.0825466   0.1792090  )
         5           H   tau(   5) = (  -0.0953183  -0.0000030   0.1792090  )
         6           H   tau(   6) = (   0.0476566   0.0825496   0.1792090  )
         7           O   tau(   7) = (  -0.0984002  -0.0000019  -0.0641310  )
         8           H   tau(   8) = (   0.1263131  -0.0000015  -0.1475548  )
         9           H   tau(   9) = (   0.1944645   0.0000134  -0.0025716  )
        10           H   tau(  10) = (  -0.0770366  -0.0000045  -0.1522861  )

     number of k points=     1
                       cart. coord. in units 2pi/alat
        k(    1) = (   0.0000000   0.0000000   0.0000000), wk =   2.0000000

     Dense  grid:   350738 G-vectors     FFT dimensions: ( 120, 120, 120)

     Smooth grid:    88755 G-vectors     FFT dimensions: (  72,  72,  72)

     Estimated max dynamical RAM per process >     624.11 MB

     Initial potential from superposition of free atoms

     starting charge   24.42266, renormalised to   24.00000

     negative rho (up, down):  4.438E-04 0.000E+00
     Starting wfcs are   22 randomized atomic wfcs

     total cpu time spent up to now is        7.1 secs

     Self-consistent Calculation

     iteration #  1     ecut=    30.00 Ry     beta= 0.70
     Davidson diagonalization with overlap
     ethr =  1.00E-02,  avg # of iterations =  3.0

     negative rho (up, down):  8.103E-05 0.000E+00

     add environment contribution to local potential
     Polarization accuracy = 5.9E-06, # of iterations =  17

     total cpu time spent up to now is       11.2 secs

     total energy              =     -80.20753153 Ry
     estimated scf accuracy    <       3.49736245 Ry
     electrostatic embedding   =       0.00000000 Ry
     correction to one-el term =       0.00000000 Ry

     iteration #  2     ecut=    30.00 Ry     beta= 0.70
     Davidson diagonalization with overlap
     ethr =  1.00E-02,  avg # of iterations =  3.0

     negative rho (up, down):  3.005E-04 0.000E+00

     add environment contribution to local potential
     Polarization accuracy = 9.5E-06, # of iterations =  17

     total cpu time spent up to now is       16.5 secs

     total energy              =     -81.25066120 Ry
     estimated scf accuracy    <       0.71952130 Ry
     electrostatic embedding   =      -0.34163776 Ry
     correction to one-el term =     -11.46889996 Ry

     iteration #  3     ecut=    30.00 Ry     beta= 0.70
     Davidson diagonalization with overlap
     ethr =  3.00E-03,  avg # of iterations =  2.0

     negative rho (up, down):  1.106E-04 0.000E+00

     add environment contribution to local potential
     Polarization accuracy = 5.3E-06, # of iterations =  23

     total cpu time spent up to now is       21.2 secs

     total energy              =     -81.34361281 Ry
     estimated scf accuracy    <       0.04025513 Ry
     electrostatic embedding   =      -0.29399362 Ry
     correction to one-el term =     -10.68694693 Ry

     iteration #  4     ecut=    30.00 Ry     beta= 0.70
     Davidson diagonalization with overlap
     ethr =  1.68E-04,  avg # of iterations =  3.0

     negative rho (up, down):  5.845E-05 0.000E+00

     add environment contribution to local potential
     Polarization accuracy = 8.5E-06, # of iterations =  23

     total cpu time spent up to now is       25.9 secs

     total energy              =     -81.36589102 Ry
     estimated scf accuracy    <       0.00936642 Ry
     electrostatic embedding   =      -0.26850577 Ry
     correction to one-el term =     -10.17701603 Ry

     iteration #  5     ecut=    30.00 Ry     beta= 0.70
     Davidson diagonalization with overlap
     ethr =  3.90E-05,  avg # of iterations =  2.0

     negative rho (up, down):  2.875E-04 0.000E+00

     the potential shift due to the Gaussian-smeared nuclei is    -0.0668 ev

     total cpu time spent up to now is       27.6 secs

     End of self-consistent calculation

          k = 0.0000 0.0000 0.0000 ( 11060 PWs)   bands (ev):

   -29.3965 -23.6473 -19.0596 -16.4586 -15.1515 -13.9081 -12.1261 -11.4097
   -10.0168 -10.0120  -9.7727  -7.9334

     highest occupied level (ev):    -7.9334

!    total energy              =     -81.36709711 Ry
     estimated scf accuracy    <       0.00122246 Ry

     The total energy is the sum of the following terms:
     one-electron contribution =    -400.52368239 Ry
     hartree contribution      =     202.09481001 Ry
     xc contribution           =     -22.98655962 Ry
     ewald contribution        =     150.41270189 Ry
     electrostatic embedding   =      -0.26737106 Ry
     correction to one-el term =     -10.09699594 Ry

     convergence has been achieved in   5 iterations

     Forces acting on atoms (cartesian axes, Ry/au):

     atom    1 type  1   force =     0.21981347   -0.00001871    0.10197113
     atom    2 type  1   force =    -0.03000913   -0.00000860   -0.07363185
     atom    3 type  3   force =    -0.13586820   -0.00005319    0.04034116
     atom    4 type  2   force =     0.01430718   -0.02160836    0.00698008
     atom    5 type  2   force =    -0.02529006    0.00001738    0.01015993
     atom    6 type  2   force =     0.01430335    0.02166665    0.00699565
     atom    7 type  4   force =    -0.08629443   -0.00003289   -0.00797324
     atom    8 type  2   force =     0.00617045    0.00000997   -0.04523161
     atom    9 type  2   force =     0.03552518    0.00001664    0.03208730
     atom   10 type  2   force =    -0.01265779    0.00001110   -0.07169854

     Total force =     0.323263     Total SCF correction =     0.036086
     SCF correction compared to forces is large: reduce conv_thr to get better values

     Writing output data file /home/simplogic86/Work/QE1/Environ/tests/../..//tempdir/pwscf.save/
 
     init_run     :      6.72s CPU      6.99s WALL (       1 calls)
     electrons    :     18.93s CPU     20.55s WALL (       1 calls)
     forces       :      0.89s CPU      0.98s WALL (       1 calls)

     Called by init_run:
     wfcinit      :      0.10s CPU      0.10s WALL (       1 calls)
     potinit      :      1.12s CPU      1.15s WALL (       1 calls)
     hinit0       :      4.44s CPU      4.50s WALL (       1 calls)

     Called by electrons:
     c_bands      :      0.89s CPU      0.97s WALL (       5 calls)
     sum_band     :      2.01s CPU      2.37s WALL (       5 calls)
     v_of_rho     :      2.29s CPU      2.51s WALL (       6 calls)
     newd         :      1.40s CPU      1.84s WALL (       6 calls)
     mix_rho      :      0.21s CPU      0.21s WALL (       5 calls)

     Called by c_bands:
     init_us_2    :      0.03s CPU      0.03s WALL (      11 calls)
     regterg      :      0.83s CPU      0.91s WALL (       5 calls)

     Called by *egterg:
     rdiaghg      :      0.00s CPU      0.00s WALL (      18 calls)
     h_psi        :      0.83s CPU      0.91s WALL (      19 calls)
     s_psi        :      0.02s CPU      0.02s WALL (      19 calls)
     g_psi        :      0.00s CPU      0.00s WALL (      13 calls)

     Called by h_psi:
     h_psi:calbec :      0.02s CPU      0.04s WALL (      19 calls)
     vloc_psi     :      0.79s CPU      0.83s WALL (      19 calls)
     add_vuspsi   :      0.02s CPU      0.03s WALL (      19 calls)

     General routines
     calbec       :      0.03s CPU      0.05s WALL (      28 calls)
     fft          :      1.04s CPU      1.07s WALL (      67 calls)
     ffts         :      0.03s CPU      0.03s WALL (      11 calls)
     fftw         :      0.65s CPU      0.69s WALL (     234 calls)
     interpolate  :      0.14s CPU      0.14s WALL (       6 calls)
 
     Parallel routines
 
     Environ routines
 
     PWSCF        :     26.64s CPU     28.63s WALL

 
   This run was terminated on:  20:46:32   1Oct2021            

=------------------------------------------------------------------------------=
   JOB DONE.
=------------------------------------------------------------------------------=

%%%% CELL %%%%%%%%%%%%%%%%%%%%%%%%%%%%%%%%%%%%%%%%%%%%%%%%%%%%%%%%%%%%%%%%%%%%%%

 cell label                 = system         

 cell volume                =    8000.000000

%%%% IONS %%%%%%%%%%%%%%%%%%%%%%%%%%%%%%%%%%%%%%%%%%%%%%%%%%%%%%%%%%%%%%%%%%%%%%

 total charge               =    -25.0000000
 center of charge           =      0.1910593    -0.0000030     0.1279620
 dipole                     =      0.0000000     0.0000000     0.0000000
 quadrupole (pc)            =    -79.0828051    -5.4513517  -105.8059620
 quadrupole (gauss)         =    -82.2078051    -8.5763517  -108.9309620

   i | type | coordinates
 -----------------------------------------------------------------------
   1 |    1 |                      0.0000000     0.0000000     0.0000000
   2 |    1 |                      0.0000000     0.0000000     2.9101782
   3 |    3 |                      2.3419379     0.0000000    -1.0900479
   4 |    2 |                      0.9532347    -1.6509323     3.5841800
   5 |    2 |                     -1.9063663    -0.0000596     3.5841809
   6 |    2 |                      0.9531315     1.6509919     3.5841800
   7 |    4 |                     -1.9680045    -0.0000375    -1.2826193
   8 |    2 |                      2.5262613    -0.0000303    -2.9510950
   9 |    2 |                      3.8892907     0.0002681    -0.0514326
  10 |    2 |                     -1.5407317    -0.0000890    -3.0457220

%%%% SYSTEM %%%%%%%%%%%%%%%%%%%%%%%%%%%%%%%%%%%%%%%%%%%%%%%%%%%%%%%%%%%%%%%%%%%%

 system is built from all present ionic types

 system defined dimension   =              0
 system defined axis        =              3

 system center              =      0.1910593    -0.0000030     0.1279620
 system width               =      4.0428509

%%%% IONS %%%%%%%%%%%%%%%%%%%%%%%%%%%%%%%%%%%%%%%%%%%%%%%%%%%%%%%%%%%%%%%%%%%%%%

 total charge               =    -25.0000000
 center of charge           =      0.1910593    -0.0000030     0.1279620
 dipole                     =      0.0000000     0.0000000     0.0000000
 quadrupole (pc)            =    -79.0828051    -5.4513517  -105.8059620
 quadrupole (gauss)         =    -82.2078051    -8.5763517  -108.9309620

   i | type | coordinates
 -----------------------------------------------------------------------
   1 |    1 |                      0.0000000     0.0000000     0.0000000
   2 |    1 |                      0.0000000     0.0000000     2.9101782
   3 |    3 |                      2.3419379     0.0000000    -1.0900479
   4 |    2 |                      0.9532347    -1.6509323     3.5841800
   5 |    2 |                     -1.9063663    -0.0000596     3.5841809
   6 |    2 |                      0.9531315     1.6509919     3.5841800
   7 |    4 |                     -1.9680045    -0.0000375    -1.2826193
   8 |    2 |                      2.5262613    -0.0000303    -2.9510950
   9 |    2 |                      3.8892907     0.0002681    -0.0514326
  10 |    2 |                     -1.5407317    -0.0000890    -3.0457220

%%%% SYSTEM %%%%%%%%%%%%%%%%%%%%%%%%%%%%%%%%%%%%%%%%%%%%%%%%%%%%%%%%%%%%%%%%%%%%

 system is built from all present ionic types

 system defined dimension   =              0
 system defined axis        =              3

 system center              =      0.1910593    -0.0000030     0.1279620
 system width               =      4.0428509

%%%% CHARGES %%%%%%%%%%%%%%%%%%%%%%%%%%%%%%%%%%%%%%%%%%%%%%%%%%%%%%%%%%%%%%%%%%%

 total number of charges    =             11

 total charge               =    -25.0000000

%%%% CHARGES %%%%%%%%%%%%%%%%%%%%%%%%%%%%%%%%%%%%%%%%%%%%%%%%%%%%%%%%%%%%%%%%%%%

 total number of charges    =             11

 total charge               =    -25.0000000

%%%% CELL %%%%%%%%%%%%%%%%%%%%%%%%%%%%%%%%%%%%%%%%%%%%%%%%%%%%%%%%%%%%%%%%%%%%%%

 cell label                 = system         

 cell volume                =    8000.000000

%%%% ELECTRONS %%%%%%%%%%%%%%%%%%%%%%%%%%%%%%%%%%%%%%%%%%%%%%%%%%%%%%%%%%%%%%%%%

 number of electrons        =             24

 total electronic charge    =     24.0000000

%%%% ELECTRONS %%%%%%%%%%%%%%%%%%%%%%%%%%%%%%%%%%%%%%%%%%%%%%%%%%%%%%%%%%%%%%%%%

 number of electrons        =             24

 total electronic charge    =     24.0000000

%%%% CHARGES %%%%%%%%%%%%%%%%%%%%%%%%%%%%%%%%%%%%%%%%%%%%%%%%%%%%%%%%%%%%%%%%%%%

 total number of charges    =             34

 total charge               =     -1.0000000

%%%% CHARGES %%%%%%%%%%%%%%%%%%%%%%%%%%%%%%%%%%%%%%%%%%%%%%%%%%%%%%%%%%%%%%%%%%%

 total number of charges    =             34

 total charge               =     -1.0000000

%%%% BOUNDARY %%%%%%%%%%%%%%%%%%%%%%%%%%%%%%%%%%%%%%%%%%%%%%%%%%%%%%%%%%%%%%%%%%

 boundary label             = solvent             
 boundary mode              = electronic          

 boundary is built as a type-2 function of a smooth density

 using the modified SCCS function:
 rhomax                     =      0.0050000
 rhomin                     =      0.0001000

 volume of the QM region    =   2771.6247496

 surface of the QM region   =    905.6008158

%%%% DENSITY %%%%%%%%%%%%%%%%%%%%%%%%%%%%%%%%%%%%%%%%%%%%%%%%%%%%%%%%%%%%%%%%%%%

 density label              = dvtot                                             

 integral of density        =    0.000000000    

%%%% DENSITY %%%%%%%%%%%%%%%%%%%%%%%%%%%%%%%%%%%%%%%%%%%%%%%%%%%%%%%%%%%%%%%%%%%

 density label              = vreference                                        

 integral of density        =    0.000000000    

%%%% DENSITY %%%%%%%%%%%%%%%%%%%%%%%%%%%%%%%%%%%%%%%%%%%%%%%%%%%%%%%%%%%%%%%%%%%

 density label              = velectrostatic                                    

 integral of density        =    0.000000000    

%%%% CHARGES %%%%%%%%%%%%%%%%%%%%%%%%%%%%%%%%%%%%%%%%%%%%%%%%%%%%%%%%%%%%%%%%%%%

 total number of charges    =             34

 total charge               =     -1.0000000

%%%% DENSITY %%%%%%%%%%%%%%%%%%%%%%%%%%%%%%%%%%%%%%%%%%%%%%%%%%%%%%%%%%%%%%%%%%%

 density label              = vsoftcavity                                       

 integral of density        =    0.000000000    

%%%% ELECTRONS %%%%%%%%%%%%%%%%%%%%%%%%%%%%%%%%%%%%%%%%%%%%%%%%%%%%%%%%%%%%%%%%%

 number of electrons        =             24

 total electronic charge    =     24.0000000

%%%% ELECTRONS %%%%%%%%%%%%%%%%%%%%%%%%%%%%%%%%%%%%%%%%%%%%%%%%%%%%%%%%%%%%%%%%%

 number of electrons        =             24

 total electronic charge    =     24.0000000

%%%% CHARGES %%%%%%%%%%%%%%%%%%%%%%%%%%%%%%%%%%%%%%%%%%%%%%%%%%%%%%%%%%%%%%%%%%%

 total number of charges    =             34

 total charge               =     -1.0000000

%%%% CHARGES %%%%%%%%%%%%%%%%%%%%%%%%%%%%%%%%%%%%%%%%%%%%%%%%%%%%%%%%%%%%%%%%%%%

 total number of charges    =             34

 total charge               =     -1.0000000

%%%% BOUNDARY %%%%%%%%%%%%%%%%%%%%%%%%%%%%%%%%%%%%%%%%%%%%%%%%%%%%%%%%%%%%%%%%%%

 boundary label             = solvent             
 boundary mode              = electronic          

 boundary is built as a type-2 function of a smooth density

 using the modified SCCS function:
 rhomax                     =      0.0050000
 rhomin                     =      0.0001000

 volume of the QM region    =   1002.0123527

 surface of the QM region   =    494.3053671

%%%% DENSITY %%%%%%%%%%%%%%%%%%%%%%%%%%%%%%%%%%%%%%%%%%%%%%%%%%%%%%%%%%%%%%%%%%%

 density label              = vreference                                        

 integral of density        =   -1906.247710    

%%%% COMPUTE ELECTROSTATIC POTENTIAL %%%%%%%%%%%%%%%%%%%%%%%%%%%%%%%%%%%%%%%%%%%

   i |      alpha     |       pAp      |      rzold     |    delta_qm    |    delta_en    |       tol
 ---------------------------------------------------------------------------------------------------------
   1 |   0.808338E+00 |   0.112351E+03 |   0.908179E+02 |   0.443034E-01 |   0.339170E+04 |   0.100000E-04
   2 |   0.646135E-01 |   0.385121E+04 |   0.248840E+03 |   0.411911E-02 |   0.293191E+02 |   0.100000E-04
   3 |   0.188791E+00 |   0.314490E+01 |   0.593728E+00 |   0.172891E-02 |   0.516524E+01 |   0.100000E-04
   4 |   0.203736E+00 |   0.343788E+00 |   0.700419E-01 |   0.118255E-02 |   0.241646E+01 |   0.100000E-04
   5 |   0.338527E+00 |   0.201826E-01 |   0.683236E-02 |   0.674167E-03 |   0.785377E+00 |   0.100000E-04
   6 |   0.428604E+00 |   0.395121E-02 |   0.169351E-02 |   0.352394E-03 |   0.214586E+00 |   0.100000E-04
   7 |   0.215774E+00 |   0.303776E-02 |   0.655470E-03 |   0.258877E-03 |   0.115806E+00 |   0.100000E-04
   8 |   0.573527E+00 |   0.381809E-03 |   0.218978E-03 |   0.152137E-03 |   0.399957E-01 |   0.100000E-04
   9 |   0.740390E+00 |   0.214181E-03 |   0.158578E-03 |   0.115911E-03 |   0.232164E-01 |   0.100000E-04
  10 |   0.536284E+00 |   0.161577E-03 |   0.866510E-04 |   0.959638E-04 |   0.159133E-01 |   0.100000E-04
  11 |   0.677939E+00 |   0.238282E-04 |   0.161540E-04 |   0.522368E-04 |   0.471516E-02 |   0.100000E-04
  12 |   0.633881E+00 |   0.102356E-04 |   0.648815E-05 |   0.218078E-04 |   0.821805E-03 |   0.100000E-04
  13 |   0.384063E+00 |   0.727411E-05 |   0.279371E-05 |   0.149759E-04 |   0.387554E-03 |   0.100000E-04
  14 |   0.425688E+00 |   0.166694E-05 |   0.709599E-06 |   0.892477E-05 |   0.137638E-03 |   0.100000E-04
  15 |   0.211746E+00 |   0.864761E-06 |   0.183110E-06 |   0.634756E-05 |   0.696238E-04 |   0.100000E-04
  16 |   0.135395E+00 |   0.241639E-05 |   0.327167E-06 |   0.364728E-05 |   0.229870E-04 |   0.100000E-04
  17 |   0.384560E+00 |   0.100780E-06 |   0.387560E-07 |   0.184811E-05 |   0.590201E-05 |   0.100000E-04

 Charges are converged, EXIT

%%%% DENSITY %%%%%%%%%%%%%%%%%%%%%%%%%%%%%%%%%%%%%%%%%%%%%%%%%%%%%%%%%%%%%%%%%%%

 density label              = velectrostatic                                    

 integral of density        =   -209.8076498    

%%%% CHARGES %%%%%%%%%%%%%%%%%%%%%%%%%%%%%%%%%%%%%%%%%%%%%%%%%%%%%%%%%%%%%%%%%%%

 total number of charges    =             34

 total charge               =     -1.0000000

%%%% DENSITY %%%%%%%%%%%%%%%%%%%%%%%%%%%%%%%%%%%%%%%%%%%%%%%%%%%%%%%%%%%%%%%%%%%

 density label              = vsoftcavity                                       

 integral of density        =    89.79844576    

%%%% DENSITY %%%%%%%%%%%%%%%%%%%%%%%%%%%%%%%%%%%%%%%%%%%%%%%%%%%%%%%%%%%%%%%%%%%

 density label              = dvtot                                             

 integral of density        =    1786.238506    

%%%% ELECTRONS %%%%%%%%%%%%%%%%%%%%%%%%%%%%%%%%%%%%%%%%%%%%%%%%%%%%%%%%%%%%%%%%%

 number of electrons        =             24

 total electronic charge    =     24.0000000

%%%% ELECTRONS %%%%%%%%%%%%%%%%%%%%%%%%%%%%%%%%%%%%%%%%%%%%%%%%%%%%%%%%%%%%%%%%%

 number of electrons        =             24

 total electronic charge    =     24.0000000

%%%% CHARGES %%%%%%%%%%%%%%%%%%%%%%%%%%%%%%%%%%%%%%%%%%%%%%%%%%%%%%%%%%%%%%%%%%%

 total number of charges    =             34

 total charge               =     -1.0000000

%%%% CHARGES %%%%%%%%%%%%%%%%%%%%%%%%%%%%%%%%%%%%%%%%%%%%%%%%%%%%%%%%%%%%%%%%%%%

 total number of charges    =             34

 total charge               =     -1.0000000

%%%% BOUNDARY %%%%%%%%%%%%%%%%%%%%%%%%%%%%%%%%%%%%%%%%%%%%%%%%%%%%%%%%%%%%%%%%%%

 boundary label             = solvent             
 boundary mode              = electronic          

 boundary is built as a type-2 function of a smooth density

 using the modified SCCS function:
 rhomax                     =      0.0050000
 rhomin                     =      0.0001000

 volume of the QM region    =    777.7085710

 surface of the QM region   =    427.8098674

%%%% DENSITY %%%%%%%%%%%%%%%%%%%%%%%%%%%%%%%%%%%%%%%%%%%%%%%%%%%%%%%%%%%%%%%%%%%

 density label              = vreference                                        

 integral of density        =   -1906.247710    

%%%% COMPUTE ELECTROSTATIC POTENTIAL %%%%%%%%%%%%%%%%%%%%%%%%%%%%%%%%%%%%%%%%%%%

 Warning: Bad guess with residual norm =   0.924527E+04, reset to no guess

   i |      alpha     |       pAp      |      rzold     |    delta_qm    |    delta_en    |       tol
 ---------------------------------------------------------------------------------------------------------
   1 |   0.821643E+00 |   0.113479E+03 |   0.932395E+02 |   0.613325E-01 |   0.650018E+04 |   0.100000E-04
   2 |   0.496719E-01 |   0.629053E+04 |   0.312463E+03 |   0.714535E-02 |   0.882249E+02 |   0.100000E-04
   3 |   0.130523E+00 |   0.108203E+02 |   0.141231E+01 |   0.233260E-02 |   0.940207E+01 |   0.100000E-04
   4 |   0.174198E+00 |   0.735087E+00 |   0.128051E+00 |   0.122651E-02 |   0.259950E+01 |   0.100000E-04
   5 |   0.261289E+00 |   0.336231E-01 |   0.878533E-02 |   0.719197E-03 |   0.893798E+00 |   0.100000E-04
   6 |   0.248985E+00 |   0.113839E-01 |   0.283442E-02 |   0.426670E-03 |   0.314578E+00 |   0.100000E-04
   7 |   0.222909E+00 |   0.662312E-02 |   0.147636E-02 |   0.245423E-03 |   0.104082E+00 |   0.100000E-04
   8 |   0.336872E+00 |   0.573425E-03 |   0.193171E-03 |   0.167149E-03 |   0.482783E-01 |   0.100000E-04
   9 |   0.491172E+00 |   0.997312E-04 |   0.489852E-04 |   0.106913E-03 |   0.197516E-01 |   0.100000E-04
  10 |   0.682524E+00 |   0.370024E-04 |   0.252551E-04 |   0.454558E-04 |   0.357045E-02 |   0.100000E-04
  11 |   0.414230E+00 |   0.205972E-04 |   0.853195E-05 |   0.260483E-04 |   0.117247E-02 |   0.100000E-04
  12 |   0.261210E+00 |   0.104463E-04 |   0.272868E-05 |   0.198295E-04 |   0.679468E-03 |   0.100000E-04
  13 |   0.318964E+00 |   0.254440E-05 |   0.811571E-06 |   0.128470E-04 |   0.285199E-03 |   0.100000E-04
  14 |   0.395093E+00 |   0.741903E-06 |   0.293121E-06 |   0.680109E-05 |   0.799284E-04 |   0.100000E-04
  15 |   0.138032E+00 |   0.100093E-05 |   0.138161E-06 |   0.585411E-05 |   0.592196E-04 |   0.100000E-04
  16 |   0.117582E+00 |   0.172339E-05 |   0.202640E-06 |   0.405798E-05 |   0.284553E-04 |   0.100000E-04
  17 |   0.387662E+00 |   0.854089E-07 |   0.331098E-07 |   0.234564E-05 |   0.950751E-05 |   0.100000E-04

 Charges are converged, EXIT

%%%% DENSITY %%%%%%%%%%%%%%%%%%%%%%%%%%%%%%%%%%%%%%%%%%%%%%%%%%%%%%%%%%%%%%%%%%%

 density label              = velectrostatic                                    

 integral of density        =   -211.4953556    

%%%% CHARGES %%%%%%%%%%%%%%%%%%%%%%%%%%%%%%%%%%%%%%%%%%%%%%%%%%%%%%%%%%%%%%%%%%%

 total number of charges    =             34

 total charge               =     -1.0000000

%%%% DENSITY %%%%%%%%%%%%%%%%%%%%%%%%%%%%%%%%%%%%%%%%%%%%%%%%%%%%%%%%%%%%%%%%%%%

 density label              = vsoftcavity                                       

 integral of density        =    49.58118247    

%%%% DENSITY %%%%%%%%%%%%%%%%%%%%%%%%%%%%%%%%%%%%%%%%%%%%%%%%%%%%%%%%%%%%%%%%%%%

 density label              = dvtot                                             

 integral of density        =    1744.333537    

%%%% ELECTRONS %%%%%%%%%%%%%%%%%%%%%%%%%%%%%%%%%%%%%%%%%%%%%%%%%%%%%%%%%%%%%%%%%

 number of electrons        =             24

 total electronic charge    =     24.0000000

%%%% ELECTRONS %%%%%%%%%%%%%%%%%%%%%%%%%%%%%%%%%%%%%%%%%%%%%%%%%%%%%%%%%%%%%%%%%

 number of electrons        =             24

 total electronic charge    =     24.0000000

%%%% CHARGES %%%%%%%%%%%%%%%%%%%%%%%%%%%%%%%%%%%%%%%%%%%%%%%%%%%%%%%%%%%%%%%%%%%

 total number of charges    =             34

 total charge               =     -1.0000000

%%%% CHARGES %%%%%%%%%%%%%%%%%%%%%%%%%%%%%%%%%%%%%%%%%%%%%%%%%%%%%%%%%%%%%%%%%%%

 total number of charges    =             34

 total charge               =     -1.0000000

%%%% BOUNDARY %%%%%%%%%%%%%%%%%%%%%%%%%%%%%%%%%%%%%%%%%%%%%%%%%%%%%%%%%%%%%%%%%%

 boundary label             = solvent             
 boundary mode              = electronic          

 boundary is built as a type-2 function of a smooth density

 using the modified SCCS function:
 rhomax                     =      0.0050000
 rhomin                     =      0.0001000

 volume of the QM region    =    715.5518743

 surface of the QM region   =    410.8870764

%%%% DENSITY %%%%%%%%%%%%%%%%%%%%%%%%%%%%%%%%%%%%%%%%%%%%%%%%%%%%%%%%%%%%%%%%%%%

 density label              = vreference                                        

 integral of density        =   -1906.247710    

%%%% COMPUTE ELECTROSTATIC POTENTIAL %%%%%%%%%%%%%%%%%%%%%%%%%%%%%%%%%%%%%%%%%%%

 Warning: Bad guess with residual norm =   0.145992E+05, reset to no guess

   i |      alpha     |       pAp      |      rzold     |    delta_qm    |    delta_en    |       tol
 ---------------------------------------------------------------------------------------------------------
   1 |   0.836021E+00 |   0.112609E+03 |   0.941434E+02 |   0.776699E-01 |   0.104244E+05 |   0.100000E-04
   2 |   0.421766E-01 |   0.811497E+04 |   0.342262E+03 |   0.107994E-01 |   0.201530E+03 |   0.100000E-04
   3 |   0.108326E+00 |   0.211627E+02 |   0.229247E+01 |   0.293855E-02 |   0.149215E+02 |   0.100000E-04
   4 |   0.156906E+00 |   0.102368E+01 |   0.160621E+00 |   0.148421E-02 |   0.380657E+01 |   0.100000E-04
   5 |   0.211409E+00 |   0.564110E-01 |   0.119258E-01 |   0.930851E-03 |   0.149728E+01 |   0.100000E-04
   6 |   0.200786E+00 |   0.208514E-01 |   0.418668E-02 |   0.584531E-03 |   0.590416E+00 |   0.100000E-04
   7 |   0.253700E+00 |   0.761047E-02 |   0.193077E-02 |   0.405807E-03 |   0.284566E+00 |   0.100000E-04
   8 |   0.313305E+00 |   0.122935E-02 |   0.385160E-03 |   0.342369E-03 |   0.202550E+00 |   0.100000E-04
   9 |   0.503980E+00 |   0.223974E-03 |   0.112878E-03 |   0.264434E-03 |   0.120831E+00 |   0.100000E-04
  10 |   0.778254E+00 |   0.110893E-03 |   0.863032E-04 |   0.139775E-03 |   0.337598E-01 |   0.100000E-04
  11 |   0.396459E+00 |   0.175302E-03 |   0.694999E-04 |   0.120639E-03 |   0.251489E-01 |   0.100000E-04
  12 |   0.310215E+00 |   0.116882E-03 |   0.362586E-04 |   0.109386E-03 |   0.206759E-01 |   0.100000E-04
  13 |   0.404297E+00 |   0.393169E-04 |   0.158957E-04 |   0.897700E-04 |   0.139254E-01 |   0.100000E-04
  14 |   0.432387E+00 |   0.338149E-04 |   0.146211E-04 |   0.811928E-04 |   0.113914E-01 |   0.100000E-04
  15 |   0.295396E+00 |   0.477362E-04 |   0.141011E-04 |   0.609604E-04 |   0.642155E-02 |   0.100000E-04
  16 |   0.591777E-01 |   0.374651E-03 |   0.221710E-04 |   0.686850E-04 |   0.815206E-02 |   0.100000E-04
  17 |   0.334259E+00 |   0.241715E-04 |   0.807953E-05 |   0.440560E-04 |   0.335392E-02 |   0.100000E-04
  18 |   0.385186E+00 |   0.828098E-05 |   0.318972E-05 |   0.289201E-04 |   0.144525E-02 |   0.100000E-04
  19 |   0.505138E+00 |   0.199723E-05 |   0.100888E-05 |   0.181377E-04 |   0.568469E-03 |   0.100000E-04
  20 |   0.572687E+00 |   0.513131E-06 |   0.293863E-06 |   0.106281E-04 |   0.195188E-03 |   0.100000E-04
  21 |   0.546866E+00 |   0.242975E-06 |   0.132875E-06 |   0.537780E-05 |   0.499751E-04 |   0.100000E-04
  22 |   0.453353E+00 |   0.132123E-06 |   0.598985E-07 |   0.267550E-05 |   0.123695E-04 |   0.100000E-04
  23 |   0.423612E+00 |   0.250449E-07 |   0.106093E-07 |   0.174776E-05 |   0.527844E-05 |   0.100000E-04

 Charges are converged, EXIT

%%%% DENSITY %%%%%%%%%%%%%%%%%%%%%%%%%%%%%%%%%%%%%%%%%%%%%%%%%%%%%%%%%%%%%%%%%%%

 density label              = velectrostatic                                    

 integral of density        =   -209.7191246    

%%%% CHARGES %%%%%%%%%%%%%%%%%%%%%%%%%%%%%%%%%%%%%%%%%%%%%%%%%%%%%%%%%%%%%%%%%%%

 total number of charges    =             34

 total charge               =     -1.0000000

%%%% DENSITY %%%%%%%%%%%%%%%%%%%%%%%%%%%%%%%%%%%%%%%%%%%%%%%%%%%%%%%%%%%%%%%%%%%

 density label              = vsoftcavity                                       

 integral of density        =    35.98990142    

%%%% DENSITY %%%%%%%%%%%%%%%%%%%%%%%%%%%%%%%%%%%%%%%%%%%%%%%%%%%%%%%%%%%%%%%%%%%

 density label              = dvtot                                             

 integral of density        =    1732.518487    

%%%% ELECTRONS %%%%%%%%%%%%%%%%%%%%%%%%%%%%%%%%%%%%%%%%%%%%%%%%%%%%%%%%%%%%%%%%%

 number of electrons        =             24

 total electronic charge    =     24.0000000

%%%% ELECTRONS %%%%%%%%%%%%%%%%%%%%%%%%%%%%%%%%%%%%%%%%%%%%%%%%%%%%%%%%%%%%%%%%%

 number of electrons        =             24

 total electronic charge    =     24.0000000

%%%% CHARGES %%%%%%%%%%%%%%%%%%%%%%%%%%%%%%%%%%%%%%%%%%%%%%%%%%%%%%%%%%%%%%%%%%%

 total number of charges    =             34

 total charge               =     -1.0000000

%%%% CHARGES %%%%%%%%%%%%%%%%%%%%%%%%%%%%%%%%%%%%%%%%%%%%%%%%%%%%%%%%%%%%%%%%%%%

 total number of charges    =             34

 total charge               =     -1.0000000

%%%% BOUNDARY %%%%%%%%%%%%%%%%%%%%%%%%%%%%%%%%%%%%%%%%%%%%%%%%%%%%%%%%%%%%%%%%%%

 boundary label             = solvent             
 boundary mode              = electronic          

 boundary is built as a type-2 function of a smooth density

 using the modified SCCS function:
 rhomax                     =      0.0050000
 rhomin                     =      0.0001000

 volume of the QM region    =    709.3440587

 surface of the QM region   =    409.5670476

%%%% DENSITY %%%%%%%%%%%%%%%%%%%%%%%%%%%%%%%%%%%%%%%%%%%%%%%%%%%%%%%%%%%%%%%%%%%

 density label              = vreference                                        

 integral of density        =   -1906.247710    

%%%% COMPUTE ELECTROSTATIC POTENTIAL %%%%%%%%%%%%%%%%%%%%%%%%%%%%%%%%%%%%%%%%%%%

 Warning: Bad guess with residual norm =   0.157584E+05, reset to no guess

   i |      alpha     |       pAp      |      rzold     |    delta_qm    |    delta_en    |       tol
 ---------------------------------------------------------------------------------------------------------
   1 |   0.838619E+00 |   0.111864E+03 |   0.938117E+02 |   0.808525E-01 |   0.112962E+05 |   0.100000E-04
   2 |   0.413558E-01 |   0.826895E+04 |   0.341969E+03 |   0.116026E-01 |   0.232623E+03 |   0.100000E-04
   3 |   0.106853E+00 |   0.230175E+02 |   0.245948E+01 |   0.319867E-02 |   0.176800E+02 |   0.100000E-04
   4 |   0.153181E+00 |   0.117314E+01 |   0.179702E+00 |   0.154701E-02 |   0.413553E+01 |   0.100000E-04
   5 |   0.214052E+00 |   0.584485E-01 |   0.125110E-01 |   0.958218E-03 |   0.158662E+01 |   0.100000E-04
   6 |   0.203593E+00 |   0.207303E-01 |   0.422054E-02 |   0.617729E-03 |   0.659386E+00 |   0.100000E-04
   7 |   0.239625E+00 |   0.873767E-02 |   0.209377E-02 |   0.454790E-03 |   0.357408E+00 |   0.100000E-04
   8 |   0.314076E+00 |   0.139026E-02 |   0.436646E-03 |   0.395283E-03 |   0.269998E+00 |   0.100000E-04
   9 |   0.503261E+00 |   0.267830E-03 |   0.134788E-03 |   0.313433E-03 |   0.169759E+00 |   0.100000E-04
  10 |   0.812871E+00 |   0.131311E-03 |   0.106739E-03 |   0.163462E-03 |   0.461716E-01 |   0.100000E-04
  11 |   0.440640E+00 |   0.194315E-03 |   0.856230E-04 |   0.146994E-03 |   0.373373E-01 |   0.100000E-04
  12 |   0.348433E+00 |   0.114504E-03 |   0.398968E-04 |   0.125253E-03 |   0.271095E-01 |   0.100000E-04
  13 |   0.435563E+00 |   0.428865E-04 |   0.186798E-04 |   0.107644E-03 |   0.200228E-01 |   0.100000E-04
  14 |   0.414422E+00 |   0.488560E-04 |   0.202470E-04 |   0.948091E-04 |   0.155326E-01 |   0.100000E-04
  15 |   0.339487E+00 |   0.465355E-04 |   0.157982E-04 |   0.706903E-04 |   0.863503E-02 |   0.100000E-04
  16 |   0.977596E-01 |   0.144034E-03 |   0.140807E-04 |   0.764771E-04 |   0.101066E-01 |   0.100000E-04
  17 |   0.144192E+00 |   0.124493E-03 |   0.179509E-04 |   0.514514E-04 |   0.457444E-02 |   0.100000E-04
  18 |   0.334849E+00 |   0.132290E-04 |   0.442970E-05 |   0.347126E-04 |   0.208218E-02 |   0.100000E-04
  19 |   0.487678E+00 |   0.286754E-05 |   0.139844E-05 |   0.222037E-04 |   0.851912E-03 |   0.100000E-04
  20 |   0.565359E+00 |   0.730294E-06 |   0.412879E-06 |   0.132690E-04 |   0.304243E-03 |   0.100000E-04
  21 |   0.562337E+00 |   0.333560E-06 |   0.187573E-06 |   0.698409E-05 |   0.842876E-04 |   0.100000E-04
  22 |   0.452765E+00 |   0.205041E-06 |   0.928352E-07 |   0.351503E-05 |   0.213502E-04 |   0.100000E-04
  23 |   0.467072E+00 |   0.355754E-07 |   0.166163E-07 |   0.222156E-05 |   0.852829E-05 |   0.100000E-04

 Charges are converged, EXIT

%%%% DENSITY %%%%%%%%%%%%%%%%%%%%%%%%%%%%%%%%%%%%%%%%%%%%%%%%%%%%%%%%%%%%%%%%%%%

 density label              = velectrostatic                                    

 integral of density        =   -207.4150649    

%%%% CHARGES %%%%%%%%%%%%%%%%%%%%%%%%%%%%%%%%%%%%%%%%%%%%%%%%%%%%%%%%%%%%%%%%%%%

 total number of charges    =             34

 total charge               =     -1.0000000

%%%% DENSITY %%%%%%%%%%%%%%%%%%%%%%%%%%%%%%%%%%%%%%%%%%%%%%%%%%%%%%%%%%%%%%%%%%%

 density label              = vsoftcavity                                       

 integral of density        =    35.24094894    

%%%% DENSITY %%%%%%%%%%%%%%%%%%%%%%%%%%%%%%%%%%%%%%%%%%%%%%%%%%%%%%%%%%%%%%%%%%%

 density label              = dvtot                                             

 integral of density        =    1734.073594    

%%%% ELECTRONS %%%%%%%%%%%%%%%%%%%%%%%%%%%%%%%%%%%%%%%%%%%%%%%%%%%%%%%%%%%%%%%%%

 number of electrons        =             24

 total electronic charge    =     24.0000000

%%%% ELECTRONS %%%%%%%%%%%%%%%%%%%%%%%%%%%%%%%%%%%%%%%%%%%%%%%%%%%%%%%%%%%%%%%%%

 number of electrons        =             24

 total electronic charge    =     24.0000000

%%%% CHARGES %%%%%%%%%%%%%%%%%%%%%%%%%%%%%%%%%%%%%%%%%%%%%%%%%%%%%%%%%%%%%%%%%%%

 total number of charges    =             34

 total charge               =     -1.0000000

%%%% CHARGES %%%%%%%%%%%%%%%%%%%%%%%%%%%%%%%%%%%%%%%%%%%%%%%%%%%%%%%%%%%%%%%%%%%

 total number of charges    =             34

 total charge               =     -1.0000000

%%%% BOUNDARY %%%%%%%%%%%%%%%%%%%%%%%%%%%%%%%%%%%%%%%%%%%%%%%%%%%%%%%%%%%%%%%%%%

 boundary label             = solvent             
 boundary mode              = electronic          

 boundary is built as a type-2 function of a smooth density

 using the modified SCCS function:
 rhomax                     =      0.0050000
 rhomin                     =      0.0001000

 volume of the QM region    =    709.3440587

 surface of the QM region   =    409.5670476

%%%% DENSITY %%%%%%%%%%%%%%%%%%%%%%%%%%%%%%%%%%%%%%%%%%%%%%%%%%%%%%%%%%%%%%%%%%%

 density label              = dvtot                                             

 integral of density        =    1734.073594    

%%%% DENSITY %%%%%%%%%%%%%%%%%%%%%%%%%%%%%%%%%%%%%%%%%%%%%%%%%%%%%%%%%%%%%%%%%%%

 density label              = vreference                                        

 integral of density        =   -1906.247710    

%%%% DENSITY %%%%%%%%%%%%%%%%%%%%%%%%%%%%%%%%%%%%%%%%%%%%%%%%%%%%%%%%%%%%%%%%%%%

 density label              = velectrostatic                                    

 integral of density        =   -207.4150649    

%%%% CHARGES %%%%%%%%%%%%%%%%%%%%%%%%%%%%%%%%%%%%%%%%%%%%%%%%%%%%%%%%%%%%%%%%%%%

 total number of charges    =             34

 total charge               =     -1.0000000

%%%% DENSITY %%%%%%%%%%%%%%%%%%%%%%%%%%%%%%%%%%%%%%%%%%%%%%%%%%%%%%%%%%%%%%%%%%%

 density label              = vsoftcavity                                       

 integral of density        =    35.24094894    
