
     Program PWSCF v.6.7MaX starts on  1Oct2021 at 20:46:58 

     This program is part of the open-source Quantum ESPRESSO suite
     for quantum simulation of materials; please cite
         "P. Giannozzi et al., J. Phys.:Condens. Matter 21 395502 (2009);
         "P. Giannozzi et al., J. Phys.:Condens. Matter 29 465901 (2017);
          URL http://www.quantum-espresso.org", 
     in publications or presentations arising from this work. More details at
     http://www.quantum-espresso.org/quote

     Parallel version (MPI), running on     1 processors

     MPI processes distributed on     1 nodes
     Reading input from isolated.in

     Current dimensions of program PWSCF are:
     Max number of different atomic species (ntypx) = 10
     Max number of k-points (npk) =  40000
     Max angular momentum in pseudopotentials (lmaxx) =  3

     Reading input from environ.in

     ================================================================================

     Reading ENVIRON namelist

     Reading BOUNDARY namelist

     Checking boundary derivatives
     derivatives               = chain          ! SCCS default

     Reading ELECTROSTATIC namelist

     Setting up electrostatic problem
     problem                   = generalized    
     solver                    = cg             

     Checking PBC correction
     pbc_correction            = none           ! default

     Reading EXTERNAL_CHARGES card
     charge spread             = 0.5 (a.u.)     ! default
     charge dimensions         = 0              ! default

     ================================================================================
 
     file C.pbe-rrkjus.UPF: wavefunction(s)  2S 2P renormalized
     file H.pbe-rrkjus.UPF: wavefunction(s)  1S renormalized
     file N.pbe-rrkjus.UPF: wavefunction(s)  2S renormalized
     file O.pbe-rrkjus.UPF: wavefunction(s)  2S renormalized

     gamma-point specific algorithms are used

     Subspace diagonalization in iterative solution of the eigenvalue problem:
     a serial algorithm will be used

 
     G-vector sticks info
     --------------------
     sticks:   dense  smooth     PW     G-vecs:    dense   smooth      PW
     Sum        9549    3809    949               701475   177509   22119
 


     bravais-lattice index     =            1
     lattice parameter (alat)  =      20.0000  a.u.
     unit-cell volume          =    8000.0000 (a.u.)^3
     number of atoms/cell      =           10
     number of atomic types    =            4
     number of electrons       =        24.00
     number of Kohn-Sham states=           12
     kinetic-energy cutoff     =      30.0000  Ry
     charge density cutoff     =     300.0000  Ry
     scf convergence threshold =      5.0E-06
     mixing beta               =       0.7000
     number of iterations used =            8  plain     mixing
     Exchange-correlation= SLA  PW   PBE  PBE
                           (   1   4   3   4   0   0   0)
 

     Environ Module
     ==============

     Please cite
         O. Andreussi, I. Dabo and N. Marzari, J. Chem. Phys. 136, 064102 (2012)         
     in publications or presentations arising from this work.

     compensation onset threshold      =               0.1000E+03
     static permittivity               =                   100.00
     epsilon calculation mode          =                     full

     Electrostatic Setup
     -------------------
     electrostatic problem to solve    = generalized             
     numerical solver adopted          = cg                      
     type of auxiliary density adopted = none                    
     type of core tool for poisson     = fft                     


     Assuming isolated system, Martyna-Tuckerman method


     celldm(1)=  20.000000  celldm(2)=   0.000000  celldm(3)=   0.000000
     celldm(4)=   0.000000  celldm(5)=   0.000000  celldm(6)=   0.000000

     crystal axes: (cart. coord. in units of alat)
               a(1) = (   1.000000   0.000000   0.000000 )  
               a(2) = (   0.000000   1.000000   0.000000 )  
               a(3) = (   0.000000   0.000000   1.000000 )  

     reciprocal axes: (cart. coord. in units 2 pi/alat)
               b(1) = (  1.000000  0.000000  0.000000 )  
               b(2) = (  0.000000  1.000000  0.000000 )  
               b(3) = (  0.000000  0.000000  1.000000 )  


     PseudoPot. # 1 for C  read from file:
     /home/simplogic86/Work/QE1/Environ/tests/../..//pseudo/C.pbe-rrkjus.UPF
     MD5 check sum: c9ac5a99bc85b198593446162950cd17
     Pseudo is Ultrasoft, Zval =  4.0
     Generated by new atomic code, or converted to UPF format
     Using radial grid of  627 points,  4 beta functions with: 
                l(1) =   0
                l(2) =   0
                l(3) =   1
                l(4) =   1
     Q(r) pseudized with 0 coefficients 


     PseudoPot. # 2 for H  read from file:
     /home/simplogic86/Work/QE1/Environ/tests/../..//pseudo/H.pbe-rrkjus.UPF
     MD5 check sum: 2d52a7f45632fd764c17cc6affed14c8
     Pseudo is Ultrasoft, Zval =  1.0
     Generated by new atomic code, or converted to UPF format
     Using radial grid of 1061 points,  2 beta functions with: 
                l(1) =   0
                l(2) =   0
     Q(r) pseudized with 0 coefficients 


     PseudoPot. # 3 for N  read from file:
     /home/simplogic86/Work/QE1/Environ/tests/../..//pseudo/N.pbe-rrkjus.UPF
     MD5 check sum: 28c76d763763edb36c62a6ca2be9aebd
     Pseudo is Ultrasoft, Zval =  5.0
     Generated by new atomic code, or converted to UPF format
     Using radial grid of 1257 points,  4 beta functions with: 
                l(1) =   0
                l(2) =   0
                l(3) =   1
                l(4) =   1
     Q(r) pseudized with 0 coefficients 


     PseudoPot. # 4 for O  read from file:
     /home/simplogic86/Work/QE1/Environ/tests/../..//pseudo/O.pbe-rrkjus.UPF
     MD5 check sum: fadcf19ee70a498d3030e2e79cf929a4
     Pseudo is Ultrasoft, Zval =  6.0
     Generated by new atomic code, or converted to UPF format
     Using radial grid of 1269 points,  4 beta functions with: 
                l(1) =   0
                l(2) =   0
                l(3) =   1
                l(4) =   1
     Q(r) pseudized with 0 coefficients 


     atomic species   valence    mass     pseudopotential
        C              4.00    12.00000     C ( 1.00)
        H              1.00     1.00000     H ( 1.00)
        N              5.00    14.00000     N ( 1.00)
        O              6.00    16.00000     O ( 1.00)

     No symmetry found



   Cartesian axes

     site n.     atom                  positions (alat units)
         1           C   tau(   1) = (   0.0000000   0.0000000   0.0000000  )
         2           C   tau(   2) = (   0.0000000   0.0000000   0.1455089  )
         3           N   tau(   3) = (   0.1170969   0.0000000  -0.0545024  )
         4           H   tau(   4) = (   0.0476617  -0.0825466   0.1792090  )
         5           H   tau(   5) = (  -0.0953183  -0.0000030   0.1792090  )
         6           H   tau(   6) = (   0.0476566   0.0825496   0.1792090  )
         7           O   tau(   7) = (  -0.0984002  -0.0000019  -0.0641310  )
         8           H   tau(   8) = (   0.1263131  -0.0000015  -0.1475548  )
         9           H   tau(   9) = (   0.1944645   0.0000134  -0.0025716  )
        10           H   tau(  10) = (  -0.0770366  -0.0000045  -0.1522861  )

     number of k points=     1
                       cart. coord. in units 2pi/alat
        k(    1) = (   0.0000000   0.0000000   0.0000000), wk =   2.0000000

     Dense  grid:   350738 G-vectors     FFT dimensions: ( 120, 120, 120)

     Smooth grid:    88755 G-vectors     FFT dimensions: (  72,  72,  72)

     Estimated max dynamical RAM per process >     624.11 MB

     Initial potential from superposition of free atoms

     starting charge   24.42266, renormalised to   24.00000

     negative rho (up, down):  4.438E-04 0.000E+00
     Starting wfcs are   22 randomized atomic wfcs

     total cpu time spent up to now is        8.8 secs

     Self-consistent Calculation

     iteration #  1     ecut=    30.00 Ry     beta= 0.70
     Davidson diagonalization with overlap
     ethr =  1.00E-02,  avg # of iterations =  3.0

     negative rho (up, down):  8.103E-05 0.000E+00

     add environment contribution to local potential
     Polarization accuracy = 7.1E-06, # of iterations =  18

     total cpu time spent up to now is       13.0 secs

     total energy              =     -80.20753153 Ry
     estimated scf accuracy    <       3.49736245 Ry
     electrostatic embedding   =       0.00000000 Ry
     correction to one-el term =       0.00000000 Ry

     iteration #  2     ecut=    30.00 Ry     beta= 0.70
     Davidson diagonalization with overlap
     ethr =  1.00E-02,  avg # of iterations =  3.0

     negative rho (up, down):  1.778E-04 0.000E+00

     add environment contribution to local potential
     Polarization accuracy = 9.0E-06, # of iterations =  22

     total cpu time spent up to now is       17.6 secs

     total energy              =     -81.34188609 Ry
     estimated scf accuracy    <       0.50332241 Ry
     electrostatic embedding   =      -0.21884215 Ry
     correction to one-el term =     -11.92717028 Ry

     iteration #  3     ecut=    30.00 Ry     beta= 0.70
     Davidson diagonalization with overlap
     ethr =  2.10E-03,  avg # of iterations =  2.0

     negative rho (up, down):  1.320E-04 0.000E+00

     add environment contribution to local potential
     Polarization accuracy = 3.6E-06, # of iterations =  27

     total cpu time spent up to now is       23.8 secs

     total energy              =     -81.33662201 Ry
     estimated scf accuracy    <       0.05474479 Ry
     electrostatic embedding   =      -0.26599345 Ry
     correction to one-el term =     -10.85990934 Ry

     iteration #  4     ecut=    30.00 Ry     beta= 0.70
     Davidson diagonalization with overlap
     ethr =  2.28E-04,  avg # of iterations =  3.0

     negative rho (up, down):  7.308E-05 0.000E+00

     add environment contribution to local potential
     Polarization accuracy = 9.8E-06, # of iterations =  27

     total cpu time spent up to now is       29.1 secs

     total energy              =     -81.34778698 Ry
     estimated scf accuracy    <       0.00529003 Ry
     electrostatic embedding   =      -0.26383901 Ry
     correction to one-el term =     -10.36528881 Ry

     iteration #  5     ecut=    30.00 Ry     beta= 0.70
     Davidson diagonalization with overlap
     ethr =  2.20E-05,  avg # of iterations =  5.0

     negative rho (up, down):  8.024E-05 0.000E+00

     add environment contribution to local potential
     Polarization accuracy = 7.4E-06, # of iterations =  27

     total cpu time spent up to now is       34.2 secs

     total energy              =     -81.35031544 Ry
     estimated scf accuracy    <       0.00068717 Ry
     electrostatic embedding   =      -0.26254293 Ry
     correction to one-el term =     -10.27111325 Ry

     iteration #  6     ecut=    30.00 Ry     beta= 0.70
     Davidson diagonalization with overlap
     ethr =  2.86E-06,  avg # of iterations =  5.0

     negative rho (up, down):  1.383E-04 0.000E+00

     add environment contribution to local potential
     Polarization accuracy = 6.5E-06, # of iterations =  27

     total cpu time spent up to now is       39.2 secs

     total energy              =     -81.35099813 Ry
     estimated scf accuracy    <       0.00020369 Ry
     electrostatic embedding   =      -0.26379417 Ry
     correction to one-el term =     -10.25508253 Ry

     iteration #  7     ecut=    30.00 Ry     beta= 0.70
     Davidson diagonalization with overlap
     ethr =  8.49E-07,  avg # of iterations =  3.0

     negative rho (up, down):  2.892E-04 0.000E+00

     add environment contribution to local potential
     Polarization accuracy = 6.8E-06, # of iterations =  27

     total cpu time spent up to now is       45.1 secs

     total energy              =     -81.35131222 Ry
     estimated scf accuracy    <       0.00003283 Ry
     electrostatic embedding   =      -0.26550549 Ry
     correction to one-el term =     -10.25923126 Ry

     iteration #  8     ecut=    30.00 Ry     beta= 0.70
     Davidson diagonalization with overlap
     ethr =  1.37E-07,  avg # of iterations =  6.0

     negative rho (up, down):  2.808E-04 0.000E+00

     add environment contribution to local potential
     Polarization accuracy = 7.1E-06, # of iterations =  27

     total cpu time spent up to now is       50.8 secs

     total energy              =     -81.35147786 Ry
     estimated scf accuracy    <       0.00002465 Ry
     electrostatic embedding   =      -0.26735274 Ry
     correction to one-el term =     -10.26534716 Ry

     iteration #  9     ecut=    30.00 Ry     beta= 0.70
     Davidson diagonalization with overlap
     ethr =  1.03E-07,  avg # of iterations =  5.0

     negative rho (up, down):  2.994E-04 0.000E+00

     add environment contribution to local potential
     Polarization accuracy = 5.8E-06, # of iterations =  27

     total cpu time spent up to now is       56.1 secs

     total energy              =     -81.35164034 Ry
     estimated scf accuracy    <       0.00000742 Ry
     electrostatic embedding   =      -0.26899332 Ry
     correction to one-el term =     -10.27339185 Ry

     iteration # 10     ecut=    30.00 Ry     beta= 0.70
     Davidson diagonalization with overlap
     ethr =  3.09E-08,  avg # of iterations =  8.0

     negative rho (up, down):  2.971E-04 0.000E+00

     add environment contribution to local potential
     Polarization accuracy = 6.1E-06, # of iterations =  27

     total cpu time spent up to now is       61.4 secs

     total energy              =     -81.35190202 Ry
     estimated scf accuracy    <       0.00001055 Ry
     electrostatic embedding   =      -0.27281788 Ry
     correction to one-el term =     -10.29281067 Ry

     iteration # 11     ecut=    30.00 Ry     beta= 0.70
     Davidson diagonalization with overlap
     ethr =  3.09E-08,  avg # of iterations =  6.0

     negative rho (up, down):  2.796E-04 0.000E+00

     the potential shift due to the Gaussian-smeared nuclei is    -0.0668 ev

     total cpu time spent up to now is       63.4 secs

     End of self-consistent calculation

          k = 0.0000 0.0000 0.0000 ( 11060 PWs)   bands (ev):

   -29.1239 -23.3921 -18.9706 -16.2341 -14.9087 -13.6734 -11.9828 -11.2542
   -10.0146  -9.9877  -9.5828  -7.6901

     highest occupied level (ev):    -7.6901

!    total energy              =     -81.35196190 Ry
     estimated scf accuracy    <       0.00000197 Ry

     The total energy is the sum of the following terms:
     one-electron contribution =    -400.25318986 Ry
     hartree contribution      =     202.04006848 Ry
     xc contribution           =     -22.97414990 Ry
     ewald contribution        =     150.41270189 Ry
     electrostatic embedding   =      -0.27503483 Ry
     correction to one-el term =     -10.30235769 Ry

     convergence has been achieved in  11 iterations

     Forces acting on atoms (cartesian axes, Ry/au):

     atom    1 type  1   force =     0.20993824    0.00000406    0.09095157
     atom    2 type  1   force =    -0.02987785   -0.00000389   -0.07252335
     atom    3 type  3   force =    -0.13443491    0.00000134    0.04081525
     atom    4 type  2   force =     0.01749909   -0.02634321    0.00819237
     atom    5 type  2   force =    -0.02939100   -0.00000257    0.01067601
     atom    6 type  2   force =     0.01749776    0.02634153    0.00819310
     atom    7 type  4   force =    -0.09191503   -0.00000292    0.00962346
     atom    8 type  2   force =     0.00528456    0.00000073   -0.05201227
     atom    9 type  2   force =     0.04097476    0.00000188    0.03502589
     atom   10 type  2   force =    -0.00557563    0.00000305   -0.07894202

     Total force =     0.319049     Total SCF correction =     0.002072

     Writing output data file /home/simplogic86/Work/QE1/Environ/tests/../..//tempdir/pwscf.save/
 
     init_run     :      8.48s CPU      8.69s WALL (       1 calls)
     electrons    :     50.69s CPU     54.59s WALL (       1 calls)
     forces       :      2.92s CPU      3.04s WALL (       1 calls)

     Called by init_run:
     wfcinit      :      0.09s CPU      0.10s WALL (       1 calls)
     potinit      :      1.10s CPU      1.12s WALL (       1 calls)
     hinit0       :      6.19s CPU      6.22s WALL (       1 calls)

     Called by electrons:
     c_bands      :      2.61s CPU      2.82s WALL (      11 calls)
     sum_band     :      4.33s CPU      5.16s WALL (      11 calls)
     v_of_rho     :      4.54s CPU      4.98s WALL (      12 calls)
     newd         :      2.85s CPU      3.84s WALL (      12 calls)
     mix_rho      :      0.59s CPU      0.60s WALL (      11 calls)

     Called by c_bands:
     init_us_2    :      0.06s CPU      0.07s WALL (      23 calls)
     regterg      :      2.48s CPU      2.69s WALL (      11 calls)

     Called by *egterg:
     rdiaghg      :      0.01s CPU      0.01s WALL (      60 calls)
     h_psi        :      2.32s CPU      2.53s WALL (      61 calls)
     s_psi        :      0.05s CPU      0.05s WALL (      61 calls)
     g_psi        :      0.01s CPU      0.01s WALL (      49 calls)

     Called by h_psi:
     h_psi:calbec :      0.06s CPU      0.08s WALL (      61 calls)
     vloc_psi     :      2.20s CPU      2.38s WALL (      61 calls)
     add_vuspsi   :      0.06s CPU      0.06s WALL (      61 calls)

     General routines
     calbec       :      0.07s CPU      0.10s WALL (      76 calls)
     fft          :      2.17s CPU      2.24s WALL (     133 calls)
     ffts         :      0.07s CPU      0.07s WALL (      23 calls)
     fftw         :      1.77s CPU      1.88s WALL (     614 calls)
     interpolate  :      0.29s CPU      0.29s WALL (      12 calls)
 
     Parallel routines
 
     Environ routines
 
     PWSCF        :   1m 2.19s CPU   1m 6.44s WALL

 
   This run was terminated on:  20:48: 4   1Oct2021            

=------------------------------------------------------------------------------=
   JOB DONE.
=------------------------------------------------------------------------------=

%%%% CELL %%%%%%%%%%%%%%%%%%%%%%%%%%%%%%%%%%%%%%%%%%%%%%%%%%%%%%%%%%%%%%%%%%%%%%

 cell label                 = system         

 cell volume                =    8000.000000

%%%% IONS %%%%%%%%%%%%%%%%%%%%%%%%%%%%%%%%%%%%%%%%%%%%%%%%%%%%%%%%%%%%%%%%%%%%%%

 total charge               =    -25.0000000
 center of charge           =      0.1910593    -0.0000030     0.1279620
 dipole                     =      0.0000000     0.0000000     0.0000000
 quadrupole (pc)            =    -79.0828051    -5.4513517  -105.8059620
 quadrupole (gauss)         =    -82.2078051    -8.5763517  -108.9309620

   i | type | coordinates
 -----------------------------------------------------------------------
   1 |    1 |                      0.0000000     0.0000000     0.0000000
   2 |    1 |                      0.0000000     0.0000000     2.9101782
   3 |    3 |                      2.3419379     0.0000000    -1.0900479
   4 |    2 |                      0.9532347    -1.6509323     3.5841800
   5 |    2 |                     -1.9063663    -0.0000596     3.5841809
   6 |    2 |                      0.9531315     1.6509919     3.5841800
   7 |    4 |                     -1.9680045    -0.0000375    -1.2826193
   8 |    2 |                      2.5262613    -0.0000303    -2.9510950
   9 |    2 |                      3.8892907     0.0002681    -0.0514326
  10 |    2 |                     -1.5407317    -0.0000890    -3.0457220

%%%% SYSTEM %%%%%%%%%%%%%%%%%%%%%%%%%%%%%%%%%%%%%%%%%%%%%%%%%%%%%%%%%%%%%%%%%%%%

 system is built from all present ionic types

 system defined dimension   =              0
 system defined axis        =              3

 system center              =      0.1910593    -0.0000030     0.1279620
 system width               =      4.0428509

%%%% IONS %%%%%%%%%%%%%%%%%%%%%%%%%%%%%%%%%%%%%%%%%%%%%%%%%%%%%%%%%%%%%%%%%%%%%%

 total charge               =    -25.0000000
 center of charge           =      0.1910593    -0.0000030     0.1279620
 dipole                     =      0.0000000     0.0000000     0.0000000
 quadrupole (pc)            =    -79.0828051    -5.4513517  -105.8059620
 quadrupole (gauss)         =    -82.2078051    -8.5763517  -108.9309620

   i | type | coordinates
 -----------------------------------------------------------------------
   1 |    1 |                      0.0000000     0.0000000     0.0000000
   2 |    1 |                      0.0000000     0.0000000     2.9101782
   3 |    3 |                      2.3419379     0.0000000    -1.0900479
   4 |    2 |                      0.9532347    -1.6509323     3.5841800
   5 |    2 |                     -1.9063663    -0.0000596     3.5841809
   6 |    2 |                      0.9531315     1.6509919     3.5841800
   7 |    4 |                     -1.9680045    -0.0000375    -1.2826193
   8 |    2 |                      2.5262613    -0.0000303    -2.9510950
   9 |    2 |                      3.8892907     0.0002681    -0.0514326
  10 |    2 |                     -1.5407317    -0.0000890    -3.0457220

%%%% SYSTEM %%%%%%%%%%%%%%%%%%%%%%%%%%%%%%%%%%%%%%%%%%%%%%%%%%%%%%%%%%%%%%%%%%%%

 system is built from all present ionic types

 system defined dimension   =              0
 system defined axis        =              3

 system center              =      0.1910593    -0.0000030     0.1279620
 system width               =      4.0428509

%%%% EXTERNALS %%%%%%%%%%%%%%%%%%%%%%%%%%%%%%%%%%%%%%%%%%%%%%%%%%%%%%%%%%%%%%%%%

 number of external charges =              1

 total external charge      =      1.0000000

%%%% CHARGES %%%%%%%%%%%%%%%%%%%%%%%%%%%%%%%%%%%%%%%%%%%%%%%%%%%%%%%%%%%%%%%%%%%

 total number of charges    =             11

 total charge               =    -25.0000000

%%%% CHARGES %%%%%%%%%%%%%%%%%%%%%%%%%%%%%%%%%%%%%%%%%%%%%%%%%%%%%%%%%%%%%%%%%%%

 total number of charges    =             12

 total charge               =    -24.0000000

%%%% CELL %%%%%%%%%%%%%%%%%%%%%%%%%%%%%%%%%%%%%%%%%%%%%%%%%%%%%%%%%%%%%%%%%%%%%%

 cell label                 = system         

 cell volume                =    8000.000000

%%%% EXTERNALS %%%%%%%%%%%%%%%%%%%%%%%%%%%%%%%%%%%%%%%%%%%%%%%%%%%%%%%%%%%%%%%%%

 number of external charges =              1

 total external charge      =      1.0000000

%%%% ELECTRONS %%%%%%%%%%%%%%%%%%%%%%%%%%%%%%%%%%%%%%%%%%%%%%%%%%%%%%%%%%%%%%%%%

 number of electrons        =             24

 total electronic charge    =     24.0000000

%%%% ELECTRONS %%%%%%%%%%%%%%%%%%%%%%%%%%%%%%%%%%%%%%%%%%%%%%%%%%%%%%%%%%%%%%%%%

 number of electrons        =             24

 total electronic charge    =     24.0000000

%%%% CHARGES %%%%%%%%%%%%%%%%%%%%%%%%%%%%%%%%%%%%%%%%%%%%%%%%%%%%%%%%%%%%%%%%%%%

 total number of charges    =             34

 total charge               =     -1.0000000

%%%% CHARGES %%%%%%%%%%%%%%%%%%%%%%%%%%%%%%%%%%%%%%%%%%%%%%%%%%%%%%%%%%%%%%%%%%%

 total number of charges    =             35

 total charge               =     -0.0000000

%%%% BOUNDARY %%%%%%%%%%%%%%%%%%%%%%%%%%%%%%%%%%%%%%%%%%%%%%%%%%%%%%%%%%%%%%%%%%

 boundary label             = solvent             
 boundary mode              = full                

 boundary is built as a type-2 function of a smooth density

 using the modified SCCS function:
 rhomax                     =      0.0050000
 rhomin                     =      0.0001000

 volume of the QM region    =   2771.6247496

 surface of the QM region   =    905.6001393

%%%% DENSITY %%%%%%%%%%%%%%%%%%%%%%%%%%%%%%%%%%%%%%%%%%%%%%%%%%%%%%%%%%%%%%%%%%%

 density label              = dvtot                                             

 integral of density        =    0.000000000    

%%%% DENSITY %%%%%%%%%%%%%%%%%%%%%%%%%%%%%%%%%%%%%%%%%%%%%%%%%%%%%%%%%%%%%%%%%%%

 density label              = vreference                                        

 integral of density        =    0.000000000    

%%%% DENSITY %%%%%%%%%%%%%%%%%%%%%%%%%%%%%%%%%%%%%%%%%%%%%%%%%%%%%%%%%%%%%%%%%%%

 density label              = velectrostatic                                    

 integral of density        =    0.000000000    

%%%% CHARGES %%%%%%%%%%%%%%%%%%%%%%%%%%%%%%%%%%%%%%%%%%%%%%%%%%%%%%%%%%%%%%%%%%%

 total number of charges    =             34

 total charge               =     -1.0000000

%%%% DENSITY %%%%%%%%%%%%%%%%%%%%%%%%%%%%%%%%%%%%%%%%%%%%%%%%%%%%%%%%%%%%%%%%%%%

 density label              = vsoftcavity                                       

 integral of density        =    0.000000000    

%%%% ELECTRONS %%%%%%%%%%%%%%%%%%%%%%%%%%%%%%%%%%%%%%%%%%%%%%%%%%%%%%%%%%%%%%%%%

 number of electrons        =             24

 total electronic charge    =     24.0000000

%%%% ELECTRONS %%%%%%%%%%%%%%%%%%%%%%%%%%%%%%%%%%%%%%%%%%%%%%%%%%%%%%%%%%%%%%%%%

 number of electrons        =             24

 total electronic charge    =     24.0000000

%%%% CHARGES %%%%%%%%%%%%%%%%%%%%%%%%%%%%%%%%%%%%%%%%%%%%%%%%%%%%%%%%%%%%%%%%%%%

 total number of charges    =             34

 total charge               =     -1.0000000

%%%% CHARGES %%%%%%%%%%%%%%%%%%%%%%%%%%%%%%%%%%%%%%%%%%%%%%%%%%%%%%%%%%%%%%%%%%%

 total number of charges    =             35

 total charge               =      0.0000000

%%%% BOUNDARY %%%%%%%%%%%%%%%%%%%%%%%%%%%%%%%%%%%%%%%%%%%%%%%%%%%%%%%%%%%%%%%%%%

 boundary label             = solvent             
 boundary mode              = full                

 boundary is built as a type-2 function of a smooth density

 using the modified SCCS function:
 rhomax                     =      0.0050000
 rhomin                     =      0.0001000

 volume of the QM region    =   1002.0123527

 surface of the QM region   =    494.3047469

%%%% DENSITY %%%%%%%%%%%%%%%%%%%%%%%%%%%%%%%%%%%%%%%%%%%%%%%%%%%%%%%%%%%%%%%%%%%

 density label              = vreference                                        

 integral of density        =   -1906.247710    

%%%% COMPUTE ELECTROSTATIC POTENTIAL %%%%%%%%%%%%%%%%%%%%%%%%%%%%%%%%%%%%%%%%%%%

   i |      alpha     |       pAp      |      rzold     |    delta_qm    |    delta_en    |       tol
 ---------------------------------------------------------------------------------------------------------
   1 |   0.881292E+00 |   0.102914E+03 |   0.906974E+02 |   0.342041E-01 |   0.202162E+04 |   0.100000E-04
   2 |   0.593855E-01 |   0.274748E+04 |   0.163160E+03 |   0.694460E-02 |   0.833372E+02 |   0.100000E-04
   3 |   0.177420E+00 |   0.561810E+01 |   0.996763E+00 |   0.393092E-02 |   0.267013E+02 |   0.100000E-04
   4 |   0.284832E+00 |   0.696240E+00 |   0.198312E+00 |   0.184689E-02 |   0.589423E+01 |   0.100000E-04
   5 |   0.331580E+00 |   0.667348E-01 |   0.221279E-01 |   0.131237E-02 |   0.297618E+01 |   0.100000E-04
   6 |   0.377750E+00 |   0.141485E-01 |   0.534460E-02 |   0.855277E-03 |   0.126403E+01 |   0.100000E-04
   7 |   0.295408E+00 |   0.805593E-02 |   0.237978E-02 |   0.607557E-03 |   0.637849E+00 |   0.100000E-04
   8 |   0.605839E+00 |   0.255348E-02 |   0.154700E-02 |   0.347172E-03 |   0.208273E+00 |   0.100000E-04
   9 |   0.734979E+00 |   0.114388E-02 |   0.840731E-03 |   0.287319E-03 |   0.142650E+00 |   0.100000E-04
  10 |   0.473368E+00 |   0.645637E-03 |   0.305624E-03 |   0.205442E-03 |   0.729325E-01 |   0.100000E-04
  11 |   0.546875E+00 |   0.163297E-03 |   0.893031E-04 |   0.120431E-03 |   0.250623E-01 |   0.100000E-04
  12 |   0.653937E+00 |   0.434624E-04 |   0.284217E-04 |   0.506211E-04 |   0.442799E-02 |   0.100000E-04
  13 |   0.376410E+00 |   0.403868E-04 |   0.152020E-04 |   0.274561E-04 |   0.130263E-02 |   0.100000E-04
  14 |   0.406832E+00 |   0.928288E-05 |   0.377657E-05 |   0.173818E-04 |   0.522073E-03 |   0.100000E-04
  15 |   0.342711E+00 |   0.258807E-05 |   0.886961E-06 |   0.112975E-04 |   0.220552E-03 |   0.100000E-04
  16 |   0.838321E-01 |   0.980305E-05 |   0.821811E-06 |   0.948114E-05 |   0.155333E-03 |   0.100000E-04
  17 |   0.257662E+00 |   0.100975E-05 |   0.260174E-06 |   0.584672E-05 |   0.590702E-04 |   0.100000E-04
  18 |   0.577102E+00 |   0.114248E-06 |   0.659328E-07 |   0.202699E-05 |   0.709982E-05 |   0.100000E-04

 Charges are converged, EXIT

%%%% DENSITY %%%%%%%%%%%%%%%%%%%%%%%%%%%%%%%%%%%%%%%%%%%%%%%%%%%%%%%%%%%%%%%%%%%

 density label              = velectrostatic                                    

 integral of density        =   -180.7201777    

%%%% CHARGES %%%%%%%%%%%%%%%%%%%%%%%%%%%%%%%%%%%%%%%%%%%%%%%%%%%%%%%%%%%%%%%%%%%

 total number of charges    =             35

 total charge               =      0.0000000

%%%% DENSITY %%%%%%%%%%%%%%%%%%%%%%%%%%%%%%%%%%%%%%%%%%%%%%%%%%%%%%%%%%%%%%%%%%%

 density label              = vsoftcavity                                       

 integral of density        =    438.7246857    

%%%% DENSITY %%%%%%%%%%%%%%%%%%%%%%%%%%%%%%%%%%%%%%%%%%%%%%%%%%%%%%%%%%%%%%%%%%%

 density label              = dvtot                                             

 integral of density        =    2164.252218    

%%%% ELECTRONS %%%%%%%%%%%%%%%%%%%%%%%%%%%%%%%%%%%%%%%%%%%%%%%%%%%%%%%%%%%%%%%%%

 number of electrons        =             24

 total electronic charge    =     24.0000000

%%%% ELECTRONS %%%%%%%%%%%%%%%%%%%%%%%%%%%%%%%%%%%%%%%%%%%%%%%%%%%%%%%%%%%%%%%%%

 number of electrons        =             24

 total electronic charge    =     24.0000000

%%%% CHARGES %%%%%%%%%%%%%%%%%%%%%%%%%%%%%%%%%%%%%%%%%%%%%%%%%%%%%%%%%%%%%%%%%%%

 total number of charges    =             34

 total charge               =     -1.0000000

%%%% CHARGES %%%%%%%%%%%%%%%%%%%%%%%%%%%%%%%%%%%%%%%%%%%%%%%%%%%%%%%%%%%%%%%%%%%

 total number of charges    =             35

 total charge               =     -0.0000000

%%%% BOUNDARY %%%%%%%%%%%%%%%%%%%%%%%%%%%%%%%%%%%%%%%%%%%%%%%%%%%%%%%%%%%%%%%%%%

 boundary label             = solvent             
 boundary mode              = full                

 boundary is built as a type-2 function of a smooth density

 using the modified SCCS function:
 rhomax                     =      0.0050000
 rhomin                     =      0.0001000

 volume of the QM region    =    750.3725645

 surface of the QM region   =    419.2801001

%%%% DENSITY %%%%%%%%%%%%%%%%%%%%%%%%%%%%%%%%%%%%%%%%%%%%%%%%%%%%%%%%%%%%%%%%%%%

 density label              = vreference                                        

 integral of density        =   -1906.247710    

%%%% COMPUTE ELECTROSTATIC POTENTIAL %%%%%%%%%%%%%%%%%%%%%%%%%%%%%%%%%%%%%%%%%%%

 Warning: Bad guess with residual norm =   0.694594E+04, reset to no guess

   i |      alpha     |       pAp      |      rzold     |    delta_qm    |    delta_en    |       tol
 ---------------------------------------------------------------------------------------------------------
   1 |   0.863756E+00 |   0.106742E+03 |   0.921987E+02 |   0.555657E-01 |   0.533529E+04 |   0.100000E-04
   2 |   0.457248E-01 |   0.564732E+04 |   0.258222E+03 |   0.632962E-02 |   0.692307E+02 |   0.100000E-04
   3 |   0.139317E+00 |   0.505082E+01 |   0.703666E+00 |   0.372026E-02 |   0.239161E+02 |   0.100000E-04
   4 |   0.209117E+00 |   0.526867E+00 |   0.110177E+00 |   0.259689E-02 |   0.116533E+02 |   0.100000E-04
   5 |   0.341328E+00 |   0.396865E-01 |   0.135461E-01 |   0.152569E-02 |   0.402233E+01 |   0.100000E-04
   6 |   0.293480E+00 |   0.206860E-01 |   0.607093E-02 |   0.995339E-03 |   0.171193E+01 |   0.100000E-04
   7 |   0.242458E+00 |   0.182706E-01 |   0.442986E-02 |   0.798361E-03 |   0.110139E+01 |   0.100000E-04
   8 |   0.428842E+00 |   0.499490E-02 |   0.214202E-02 |   0.456592E-03 |   0.360247E+00 |   0.100000E-04
   9 |   0.474976E+00 |   0.250635E-02 |   0.119045E-02 |   0.404580E-03 |   0.282848E+00 |   0.100000E-04
  10 |   0.455763E+00 |   0.137748E-02 |   0.627806E-03 |   0.389988E-03 |   0.262812E+00 |   0.100000E-04
  11 |   0.622576E+00 |   0.360257E-03 |   0.224287E-03 |   0.281513E-03 |   0.136943E+00 |   0.100000E-04
  12 |   0.538475E+00 |   0.280288E-03 |   0.150928E-03 |   0.197079E-03 |   0.671160E-01 |   0.100000E-04
  13 |   0.319538E+00 |   0.575604E-03 |   0.183927E-03 |   0.148552E-03 |   0.381328E-01 |   0.100000E-04
  14 |   0.388091E+00 |   0.194629E-03 |   0.755338E-04 |   0.124942E-03 |   0.269752E-01 |   0.100000E-04
  15 |   0.440324E+00 |   0.525210E-04 |   0.231262E-04 |   0.882648E-04 |   0.134623E-01 |   0.100000E-04
  16 |   0.639112E-01 |   0.557458E-03 |   0.356278E-04 |   0.776784E-04 |   0.104266E-01 |   0.100000E-04
  17 |   0.350155E+00 |   0.394895E-04 |   0.138275E-04 |   0.422031E-04 |   0.307774E-02 |   0.100000E-04
  18 |   0.459567E+00 |   0.111046E-04 |   0.510333E-05 |   0.238860E-04 |   0.985897E-03 |   0.100000E-04
  19 |   0.269990E+00 |   0.774605E-05 |   0.209136E-05 |   0.190631E-04 |   0.627960E-03 |   0.100000E-04
  20 |   0.523433E+00 |   0.925344E-06 |   0.484355E-06 |   0.973156E-05 |   0.163647E-03 |   0.100000E-04
  21 |   0.491519E+00 |   0.244334E-06 |   0.120095E-06 |   0.494235E-05 |   0.422096E-04 |   0.100000E-04
  22 |   0.493258E+00 |   0.768152E-07 |   0.378897E-07 |   0.228199E-05 |   0.899854E-05 |   0.100000E-04

 Charges are converged, EXIT

%%%% DENSITY %%%%%%%%%%%%%%%%%%%%%%%%%%%%%%%%%%%%%%%%%%%%%%%%%%%%%%%%%%%%%%%%%%%

 density label              = velectrostatic                                    

 integral of density        =   -181.6065565    

%%%% CHARGES %%%%%%%%%%%%%%%%%%%%%%%%%%%%%%%%%%%%%%%%%%%%%%%%%%%%%%%%%%%%%%%%%%%

 total number of charges    =             35

 total charge               =     -0.0000000

%%%% DENSITY %%%%%%%%%%%%%%%%%%%%%%%%%%%%%%%%%%%%%%%%%%%%%%%%%%%%%%%%%%%%%%%%%%%

 density label              = vsoftcavity                                       

 integral of density        =    164.8025457    

%%%% DENSITY %%%%%%%%%%%%%%%%%%%%%%%%%%%%%%%%%%%%%%%%%%%%%%%%%%%%%%%%%%%%%%%%%%%

 density label              = dvtot                                             

 integral of density        =    1889.443699    

%%%% ELECTRONS %%%%%%%%%%%%%%%%%%%%%%%%%%%%%%%%%%%%%%%%%%%%%%%%%%%%%%%%%%%%%%%%%

 number of electrons        =             24

 total electronic charge    =     24.0000000

%%%% ELECTRONS %%%%%%%%%%%%%%%%%%%%%%%%%%%%%%%%%%%%%%%%%%%%%%%%%%%%%%%%%%%%%%%%%

 number of electrons        =             24

 total electronic charge    =     24.0000000

%%%% CHARGES %%%%%%%%%%%%%%%%%%%%%%%%%%%%%%%%%%%%%%%%%%%%%%%%%%%%%%%%%%%%%%%%%%%

 total number of charges    =             34

 total charge               =     -1.0000000

%%%% CHARGES %%%%%%%%%%%%%%%%%%%%%%%%%%%%%%%%%%%%%%%%%%%%%%%%%%%%%%%%%%%%%%%%%%%

 total number of charges    =             35

 total charge               =     -0.0000000

%%%% BOUNDARY %%%%%%%%%%%%%%%%%%%%%%%%%%%%%%%%%%%%%%%%%%%%%%%%%%%%%%%%%%%%%%%%%%

 boundary label             = solvent             
 boundary mode              = full                

 boundary is built as a type-2 function of a smooth density

 using the modified SCCS function:
 rhomax                     =      0.0050000
 rhomin                     =      0.0001000

 volume of the QM region    =    710.2331779

 surface of the QM region   =    409.5487952

%%%% DENSITY %%%%%%%%%%%%%%%%%%%%%%%%%%%%%%%%%%%%%%%%%%%%%%%%%%%%%%%%%%%%%%%%%%%

 density label              = vreference                                        

 integral of density        =   -1906.247710    

%%%% COMPUTE ELECTROSTATIC POTENTIAL %%%%%%%%%%%%%%%%%%%%%%%%%%%%%%%%%%%%%%%%%%%

 Warning: Bad guess with residual norm =   0.134044E+05, reset to no guess

   i |      alpha     |       pAp      |      rzold     |    delta_qm    |    delta_en    |       tol
 ---------------------------------------------------------------------------------------------------------
   1 |   0.858205E+00 |   0.109553E+03 |   0.940185E+02 |   0.761871E-01 |   0.100301E+05 |   0.100000E-04
   2 |   0.404095E-01 |   0.769517E+04 |   0.310958E+03 |   0.937299E-02 |   0.151810E+03 |   0.100000E-04
   3 |   0.109965E+00 |   0.125901E+02 |   0.138447E+01 |   0.722525E-02 |   0.902090E+02 |   0.100000E-04
   4 |   0.173748E+00 |   0.747955E+00 |   0.129955E+00 |   0.607309E-02 |   0.637328E+02 |   0.100000E-04
   5 |   0.243085E+00 |   0.756575E-01 |   0.183912E-01 |   0.462891E-02 |   0.370256E+02 |   0.100000E-04
   6 |   0.269930E+00 |   0.394855E-01 |   0.106583E-01 |   0.293873E-02 |   0.149232E+02 |   0.100000E-04
   7 |   0.319959E+00 |   0.301765E-01 |   0.965523E-02 |   0.205955E-02 |   0.732974E+01 |   0.100000E-04
   8 |   0.433640E+00 |   0.113154E-01 |   0.490682E-02 |   0.116891E-02 |   0.236105E+01 |   0.100000E-04
   9 |   0.461719E+00 |   0.749570E-02 |   0.346091E-02 |   0.796757E-03 |   0.109697E+01 |   0.100000E-04
  10 |   0.419207E+00 |   0.389885E-02 |   0.163442E-02 |   0.787265E-03 |   0.107099E+01 |   0.100000E-04
  11 |   0.439910E+00 |   0.900813E-03 |   0.396276E-03 |   0.633602E-03 |   0.693708E+00 |   0.100000E-04
  12 |   0.419147E+00 |   0.686941E-03 |   0.287929E-03 |   0.454549E-03 |   0.357031E+00 |   0.100000E-04
  13 |   0.515453E+00 |   0.546976E-03 |   0.281941E-03 |   0.307241E-03 |   0.163118E+00 |   0.100000E-04
  14 |   0.324135E+00 |   0.661496E-03 |   0.214414E-03 |   0.320904E-03 |   0.177948E+00 |   0.100000E-04
  15 |   0.185801E+00 |   0.636161E-03 |   0.118200E-03 |   0.311079E-03 |   0.167218E+00 |   0.100000E-04
  16 |   0.667403E-01 |   0.281664E-02 |   0.187984E-03 |   0.305626E-03 |   0.161408E+00 |   0.100000E-04
  17 |   0.432223E+00 |   0.136253E-03 |   0.588916E-04 |   0.202194E-03 |   0.706445E-01 |   0.100000E-04
  18 |   0.586387E+00 |   0.517204E-04 |   0.303281E-04 |   0.107382E-03 |   0.199252E-01 |   0.100000E-04
  19 |   0.369034E+00 |   0.555755E-04 |   0.205093E-04 |   0.910757E-04 |   0.143334E-01 |   0.100000E-04
  20 |   0.537132E+00 |   0.110064E-04 |   0.591187E-05 |   0.618358E-04 |   0.660729E-02 |   0.100000E-04
  21 |   0.429761E+00 |   0.572903E-05 |   0.246211E-05 |   0.413825E-04 |   0.295923E-02 |   0.100000E-04
  22 |   0.512246E+00 |   0.182990E-05 |   0.937361E-06 |   0.223704E-04 |   0.864750E-03 |   0.100000E-04
  23 |   0.590298E+00 |   0.499630E-06 |   0.294931E-06 |   0.114886E-04 |   0.228075E-03 |   0.100000E-04
  24 |   0.445073E+00 |   0.304099E-06 |   0.135346E-06 |   0.691238E-05 |   0.825655E-04 |   0.100000E-04
  25 |   0.277247E+00 |   0.188312E-06 |   0.522090E-07 |   0.531509E-05 |   0.488164E-04 |   0.100000E-04
  26 |   0.480698E+00 |   0.320573E-07 |   0.154099E-07 |   0.312473E-05 |   0.168721E-04 |   0.100000E-04
  27 |   0.666452E+00 |   0.566361E-08 |   0.377453E-08 |   0.144322E-05 |   0.359924E-05 |   0.100000E-04

 Charges are converged, EXIT

%%%% DENSITY %%%%%%%%%%%%%%%%%%%%%%%%%%%%%%%%%%%%%%%%%%%%%%%%%%%%%%%%%%%%%%%%%%%

 density label              = velectrostatic                                    

 integral of density        =   -183.8284883    

%%%% CHARGES %%%%%%%%%%%%%%%%%%%%%%%%%%%%%%%%%%%%%%%%%%%%%%%%%%%%%%%%%%%%%%%%%%%

 total number of charges    =             35

 total charge               =     -0.0000000

%%%% DENSITY %%%%%%%%%%%%%%%%%%%%%%%%%%%%%%%%%%%%%%%%%%%%%%%%%%%%%%%%%%%%%%%%%%%

 density label              = vsoftcavity                                       

 integral of density        =    54.69496630    

%%%% DENSITY %%%%%%%%%%%%%%%%%%%%%%%%%%%%%%%%%%%%%%%%%%%%%%%%%%%%%%%%%%%%%%%%%%%

 density label              = dvtot                                             

 integral of density        =    1777.114188    

%%%% ELECTRONS %%%%%%%%%%%%%%%%%%%%%%%%%%%%%%%%%%%%%%%%%%%%%%%%%%%%%%%%%%%%%%%%%

 number of electrons        =             24

 total electronic charge    =     24.0000000

%%%% ELECTRONS %%%%%%%%%%%%%%%%%%%%%%%%%%%%%%%%%%%%%%%%%%%%%%%%%%%%%%%%%%%%%%%%%

 number of electrons        =             24

 total electronic charge    =     24.0000000

%%%% CHARGES %%%%%%%%%%%%%%%%%%%%%%%%%%%%%%%%%%%%%%%%%%%%%%%%%%%%%%%%%%%%%%%%%%%

 total number of charges    =             34

 total charge               =     -1.0000000

%%%% CHARGES %%%%%%%%%%%%%%%%%%%%%%%%%%%%%%%%%%%%%%%%%%%%%%%%%%%%%%%%%%%%%%%%%%%

 total number of charges    =             35

 total charge               =     -0.0000000

%%%% BOUNDARY %%%%%%%%%%%%%%%%%%%%%%%%%%%%%%%%%%%%%%%%%%%%%%%%%%%%%%%%%%%%%%%%%%

 boundary label             = solvent             
 boundary mode              = full                

 boundary is built as a type-2 function of a smooth density

 using the modified SCCS function:
 rhomax                     =      0.0050000
 rhomin                     =      0.0001000

 volume of the QM region    =    704.7813498

 surface of the QM region   =    408.7660747

%%%% DENSITY %%%%%%%%%%%%%%%%%%%%%%%%%%%%%%%%%%%%%%%%%%%%%%%%%%%%%%%%%%%%%%%%%%%

 density label              = vreference                                        

 integral of density        =   -1906.247710    

%%%% COMPUTE ELECTROSTATIC POTENTIAL %%%%%%%%%%%%%%%%%%%%%%%%%%%%%%%%%%%%%%%%%%%

 Warning: Bad guess with residual norm =   0.152656E+05, reset to no guess

   i |      alpha     |       pAp      |      rzold     |    delta_qm    |    delta_en    |       tol
 ---------------------------------------------------------------------------------------------------------
   1 |   0.859680E+00 |   0.108933E+03 |   0.936472E+02 |   0.813502E-01 |   0.114356E+05 |   0.100000E-04
   2 |   0.395269E-01 |   0.791963E+04 |   0.313038E+03 |   0.100431E-01 |   0.174292E+03 |   0.100000E-04
   3 |   0.106283E+00 |   0.149855E+02 |   0.159270E+01 |   0.809807E-02 |   0.113320E+03 |   0.100000E-04
   4 |   0.166284E+00 |   0.828292E+00 |   0.137732E+00 |   0.705997E-02 |   0.861290E+02 |   0.100000E-04
   5 |   0.228399E+00 |   0.843666E-01 |   0.192693E-01 |   0.554546E-02 |   0.531397E+02 |   0.100000E-04
   6 |   0.257636E+00 |   0.407137E-01 |   0.104893E-01 |   0.360054E-02 |   0.224016E+02 |   0.100000E-04
   7 |   0.336607E+00 |   0.268160E-01 |   0.902645E-02 |   0.250098E-02 |   0.108084E+02 |   0.100000E-04
   8 |   0.432763E+00 |   0.113778E-01 |   0.492389E-02 |   0.142190E-02 |   0.349367E+01 |   0.100000E-04
   9 |   0.486682E+00 |   0.764159E-02 |   0.371902E-02 |   0.846276E-03 |   0.123756E+01 |   0.100000E-04
  10 |   0.419935E+00 |   0.449560E-02 |   0.188786E-02 |   0.890040E-03 |   0.136887E+01 |   0.100000E-04
  11 |   0.383622E+00 |   0.118265E-02 |   0.453689E-03 |   0.739505E-03 |   0.944988E+00 |   0.100000E-04
  12 |   0.407074E+00 |   0.730136E-03 |   0.297219E-03 |   0.550380E-03 |   0.523443E+00 |   0.100000E-04
  13 |   0.593133E+00 |   0.434679E-03 |   0.257823E-03 |   0.331856E-03 |   0.190301E+00 |   0.100000E-04
  14 |   0.382206E+00 |   0.585091E-03 |   0.223626E-03 |   0.349306E-03 |   0.210841E+00 |   0.100000E-04
  15 |   0.271389E+00 |   0.390011E-03 |   0.105845E-03 |   0.348812E-03 |   0.210245E+00 |   0.100000E-04
  16 |   0.385139E+00 |   0.169751E-03 |   0.653778E-04 |   0.273186E-03 |   0.128962E+00 |   0.100000E-04
  17 |   0.144170E+00 |   0.303365E-03 |   0.437360E-04 |   0.226230E-03 |   0.884389E-01 |   0.100000E-04
  18 |   0.141142E+00 |   0.732996E-03 |   0.103457E-03 |   0.144842E-03 |   0.362522E-01 |   0.100000E-04
  19 |   0.418146E+00 |   0.634633E-04 |   0.265369E-04 |   0.107354E-03 |   0.199149E-01 |   0.100000E-04
  20 |   0.545256E+00 |   0.150171E-04 |   0.818815E-05 |   0.766869E-04 |   0.101622E-01 |   0.100000E-04
  21 |   0.425788E+00 |   0.830204E-05 |   0.353491E-05 |   0.547929E-04 |   0.518790E-02 |   0.100000E-04
  22 |   0.496614E+00 |   0.256110E-05 |   0.127188E-05 |   0.327921E-04 |   0.185815E-02 |   0.100000E-04
  23 |   0.614190E+00 |   0.649907E-06 |   0.399166E-06 |   0.161478E-04 |   0.450580E-03 |   0.100000E-04
  24 |   0.538597E+00 |   0.359342E-06 |   0.193541E-06 |   0.831965E-05 |   0.119606E-03 |   0.100000E-04
  25 |   0.520052E+00 |   0.851038E-07 |   0.442584E-07 |   0.569879E-05 |   0.561190E-04 |   0.100000E-04
  26 |   0.389799E+00 |   0.323468E-07 |   0.126087E-07 |   0.395289E-05 |   0.270006E-04 |   0.100000E-04
  27 |   0.377245E+00 |   0.172340E-07 |   0.650143E-08 |   0.237990E-05 |   0.978725E-05 |   0.100000E-04

 Charges are converged, EXIT

%%%% DENSITY %%%%%%%%%%%%%%%%%%%%%%%%%%%%%%%%%%%%%%%%%%%%%%%%%%%%%%%%%%%%%%%%%%%

 density label              = velectrostatic                                    

 integral of density        =   -181.9994940    

%%%% CHARGES %%%%%%%%%%%%%%%%%%%%%%%%%%%%%%%%%%%%%%%%%%%%%%%%%%%%%%%%%%%%%%%%%%%

 total number of charges    =             35

 total charge               =     -0.0000000

%%%% DENSITY %%%%%%%%%%%%%%%%%%%%%%%%%%%%%%%%%%%%%%%%%%%%%%%%%%%%%%%%%%%%%%%%%%%

 density label              = vsoftcavity                                       

 integral of density        =    47.99568065    

%%%% DENSITY %%%%%%%%%%%%%%%%%%%%%%%%%%%%%%%%%%%%%%%%%%%%%%%%%%%%%%%%%%%%%%%%%%%

 density label              = dvtot                                             

 integral of density        =    1772.243896    

%%%% ELECTRONS %%%%%%%%%%%%%%%%%%%%%%%%%%%%%%%%%%%%%%%%%%%%%%%%%%%%%%%%%%%%%%%%%

 number of electrons        =             24

 total electronic charge    =     24.0000000

%%%% ELECTRONS %%%%%%%%%%%%%%%%%%%%%%%%%%%%%%%%%%%%%%%%%%%%%%%%%%%%%%%%%%%%%%%%%

 number of electrons        =             24

 total electronic charge    =     24.0000000

%%%% CHARGES %%%%%%%%%%%%%%%%%%%%%%%%%%%%%%%%%%%%%%%%%%%%%%%%%%%%%%%%%%%%%%%%%%%

 total number of charges    =             34

 total charge               =     -1.0000000

%%%% CHARGES %%%%%%%%%%%%%%%%%%%%%%%%%%%%%%%%%%%%%%%%%%%%%%%%%%%%%%%%%%%%%%%%%%%

 total number of charges    =             35

 total charge               =     -0.0000000

%%%% BOUNDARY %%%%%%%%%%%%%%%%%%%%%%%%%%%%%%%%%%%%%%%%%%%%%%%%%%%%%%%%%%%%%%%%%%

 boundary label             = solvent             
 boundary mode              = full                

 boundary is built as a type-2 function of a smooth density

 using the modified SCCS function:
 rhomax                     =      0.0050000
 rhomin                     =      0.0001000

 volume of the QM region    =    708.9474012

 surface of the QM region   =    410.6761414

%%%% DENSITY %%%%%%%%%%%%%%%%%%%%%%%%%%%%%%%%%%%%%%%%%%%%%%%%%%%%%%%%%%%%%%%%%%%

 density label              = vreference                                        

 integral of density        =   -1906.247710    

%%%% COMPUTE ELECTROSTATIC POTENTIAL %%%%%%%%%%%%%%%%%%%%%%%%%%%%%%%%%%%%%%%%%%%

 Warning: Bad guess with residual norm =   0.147054E+05, reset to no guess

   i |      alpha     |       pAp      |      rzold     |    delta_qm    |    delta_en    |       tol
 ---------------------------------------------------------------------------------------------------------
   1 |   0.860381E+00 |   0.108815E+03 |   0.936225E+02 |   0.799235E-01 |   0.110381E+05 |   0.100000E-04
   2 |   0.397017E-01 |   0.779723E+04 |   0.309563E+03 |   0.992875E-02 |   0.170346E+03 |   0.100000E-04
   3 |   0.106157E+00 |   0.161728E+02 |   0.171686E+01 |   0.709369E-02 |   0.869536E+02 |   0.100000E-04
   4 |   0.163797E+00 |   0.849272E+00 |   0.139108E+00 |   0.632507E-02 |   0.691313E+02 |   0.100000E-04
   5 |   0.237490E+00 |   0.778694E-01 |   0.184932E-01 |   0.499237E-02 |   0.430683E+02 |   0.100000E-04
   6 |   0.253119E+00 |   0.420117E-01 |   0.106339E-01 |   0.321134E-02 |   0.178203E+02 |   0.100000E-04
   7 |   0.335906E+00 |   0.258886E-01 |   0.869614E-02 |   0.221994E-02 |   0.851579E+01 |   0.100000E-04
   8 |   0.428147E+00 |   0.110799E-01 |   0.474383E-02 |   0.129021E-02 |   0.287652E+01 |   0.100000E-04
   9 |   0.499131E+00 |   0.689797E-02 |   0.344299E-02 |   0.809835E-03 |   0.113328E+01 |   0.100000E-04
  10 |   0.418878E+00 |   0.408643E-02 |   0.171172E-02 |   0.840257E-03 |   0.122002E+01 |   0.100000E-04
  11 |   0.392658E+00 |   0.110953E-02 |   0.435668E-03 |   0.687149E-03 |   0.815917E+00 |   0.100000E-04
  12 |   0.425636E+00 |   0.679931E-03 |   0.289403E-03 |   0.502669E-03 |   0.436624E+00 |   0.100000E-04
  13 |   0.573335E+00 |   0.451989E-03 |   0.259141E-03 |   0.317369E-03 |   0.174049E+00 |   0.100000E-04
  14 |   0.408004E+00 |   0.508684E-03 |   0.207545E-03 |   0.342017E-03 |   0.202134E+00 |   0.100000E-04
  15 |   0.219089E+00 |   0.367850E-03 |   0.805919E-04 |   0.319570E-03 |   0.176472E+00 |   0.100000E-04
  16 |   0.805688E-01 |   0.283524E-02 |   0.228432E-03 |   0.296812E-03 |   0.152232E+00 |   0.100000E-04
  17 |   0.338297E+00 |   0.156498E-03 |   0.529429E-04 |   0.213428E-03 |   0.787133E-01 |   0.100000E-04
  18 |   0.340565E+00 |   0.122177E-03 |   0.416093E-04 |   0.130552E-03 |   0.294518E-01 |   0.100000E-04
  19 |   0.404643E+00 |   0.655197E-04 |   0.265121E-04 |   0.101971E-03 |   0.179678E-01 |   0.100000E-04
  20 |   0.549283E+00 |   0.133133E-04 |   0.731275E-05 |   0.731678E-04 |   0.925090E-02 |   0.100000E-04
  21 |   0.431993E+00 |   0.735917E-05 |   0.317911E-05 |   0.499115E-04 |   0.430471E-02 |   0.100000E-04
  22 |   0.509217E+00 |   0.226807E-05 |   0.115494E-05 |   0.280340E-04 |   0.135805E-02 |   0.100000E-04
  23 |   0.619672E+00 |   0.580372E-06 |   0.359641E-06 |   0.137211E-04 |   0.325327E-03 |   0.100000E-04
  24 |   0.516900E+00 |   0.314875E-06 |   0.162759E-06 |   0.794336E-05 |   0.109032E-03 |   0.100000E-04
  25 |   0.446711E+00 |   0.887426E-07 |   0.396423E-07 |   0.552881E-05 |   0.528211E-04 |   0.100000E-04
  26 |   0.283335E+00 |   0.694170E-07 |   0.196682E-07 |   0.399908E-05 |   0.276353E-04 |   0.100000E-04
  27 |   0.550781E+00 |   0.107169E-07 |   0.590264E-08 |   0.206763E-05 |   0.738738E-05 |   0.100000E-04

 Charges are converged, EXIT

%%%% DENSITY %%%%%%%%%%%%%%%%%%%%%%%%%%%%%%%%%%%%%%%%%%%%%%%%%%%%%%%%%%%%%%%%%%%

 density label              = velectrostatic                                    

 integral of density        =   -181.7867716    

%%%% CHARGES %%%%%%%%%%%%%%%%%%%%%%%%%%%%%%%%%%%%%%%%%%%%%%%%%%%%%%%%%%%%%%%%%%%

 total number of charges    =             35

 total charge               =     -0.0000000

%%%% DENSITY %%%%%%%%%%%%%%%%%%%%%%%%%%%%%%%%%%%%%%%%%%%%%%%%%%%%%%%%%%%%%%%%%%%

 density label              = vsoftcavity                                       

 integral of density        =    49.55545623    

%%%% DENSITY %%%%%%%%%%%%%%%%%%%%%%%%%%%%%%%%%%%%%%%%%%%%%%%%%%%%%%%%%%%%%%%%%%%

 density label              = dvtot                                             

 integral of density        =    1774.016394    

%%%% ELECTRONS %%%%%%%%%%%%%%%%%%%%%%%%%%%%%%%%%%%%%%%%%%%%%%%%%%%%%%%%%%%%%%%%%

 number of electrons        =             24

 total electronic charge    =     24.0000000

%%%% ELECTRONS %%%%%%%%%%%%%%%%%%%%%%%%%%%%%%%%%%%%%%%%%%%%%%%%%%%%%%%%%%%%%%%%%

 number of electrons        =             24

 total electronic charge    =     24.0000000

%%%% CHARGES %%%%%%%%%%%%%%%%%%%%%%%%%%%%%%%%%%%%%%%%%%%%%%%%%%%%%%%%%%%%%%%%%%%

 total number of charges    =             34

 total charge               =     -1.0000000

%%%% CHARGES %%%%%%%%%%%%%%%%%%%%%%%%%%%%%%%%%%%%%%%%%%%%%%%%%%%%%%%%%%%%%%%%%%%

 total number of charges    =             35

 total charge               =      0.0000000

%%%% BOUNDARY %%%%%%%%%%%%%%%%%%%%%%%%%%%%%%%%%%%%%%%%%%%%%%%%%%%%%%%%%%%%%%%%%%

 boundary label             = solvent             
 boundary mode              = full                

 boundary is built as a type-2 function of a smooth density

 using the modified SCCS function:
 rhomax                     =      0.0050000
 rhomin                     =      0.0001000

 volume of the QM region    =    712.8951626

 surface of the QM region   =    412.3563599

%%%% DENSITY %%%%%%%%%%%%%%%%%%%%%%%%%%%%%%%%%%%%%%%%%%%%%%%%%%%%%%%%%%%%%%%%%%%

 density label              = vreference                                        

 integral of density        =   -1906.247710    

%%%% COMPUTE ELECTROSTATIC POTENTIAL %%%%%%%%%%%%%%%%%%%%%%%%%%%%%%%%%%%%%%%%%%%

 Warning: Bad guess with residual norm =   0.145403E+05, reset to no guess

   i |      alpha     |       pAp      |      rzold     |    delta_qm    |    delta_en    |       tol
 ---------------------------------------------------------------------------------------------------------
   1 |   0.860141E+00 |   0.108895E+03 |   0.936654E+02 |   0.794600E-01 |   0.109104E+05 |   0.100000E-04
   2 |   0.398697E-01 |   0.774199E+04 |   0.308671E+03 |   0.987762E-02 |   0.168596E+03 |   0.100000E-04
   3 |   0.106720E+00 |   0.166370E+02 |   0.177551E+01 |   0.661360E-02 |   0.755822E+02 |   0.100000E-04
   4 |   0.160740E+00 |   0.884548E+00 |   0.142182E+00 |   0.597690E-02 |   0.617300E+02 |   0.100000E-04
   5 |   0.243501E+00 |   0.736831E-01 |   0.179419E-01 |   0.475208E-02 |   0.390222E+02 |   0.100000E-04
   6 |   0.252576E+00 |   0.418427E-01 |   0.105685E-01 |   0.306163E-02 |   0.161975E+02 |   0.100000E-04
   7 |   0.332348E+00 |   0.255867E-01 |   0.850369E-02 |   0.212101E-02 |   0.777371E+01 |   0.100000E-04
   8 |   0.429147E+00 |   0.107603E-01 |   0.461778E-02 |   0.124516E-02 |   0.267915E+01 |   0.100000E-04
   9 |   0.509528E+00 |   0.651008E-02 |   0.331707E-02 |   0.794505E-03 |   0.109078E+01 |   0.100000E-04
  10 |   0.416307E+00 |   0.395022E-02 |   0.164450E-02 |   0.816786E-03 |   0.115282E+01 |   0.100000E-04
  11 |   0.384304E+00 |   0.113056E-02 |   0.434479E-03 |   0.666546E-03 |   0.767722E+00 |   0.100000E-04
  12 |   0.430650E+00 |   0.667503E-03 |   0.287460E-03 |   0.483534E-03 |   0.404015E+00 |   0.100000E-04
  13 |   0.579599E+00 |   0.434177E-03 |   0.251648E-03 |   0.310118E-03 |   0.166188E+00 |   0.100000E-04
  14 |   0.409604E+00 |   0.494527E-03 |   0.202560E-03 |   0.333007E-03 |   0.191624E+00 |   0.100000E-04
  15 |   0.160057E+00 |   0.520956E-03 |   0.833828E-04 |   0.315495E-03 |   0.172000E+00 |   0.100000E-04
  16 |   0.113158E+00 |   0.181310E-02 |   0.205168E-03 |   0.282701E-03 |   0.138101E+00 |   0.100000E-04
  17 |   0.466949E+00 |   0.936902E-04 |   0.437485E-04 |   0.180168E-03 |   0.560916E-01 |   0.100000E-04
  18 |   0.354139E+00 |   0.929807E-04 |   0.329281E-04 |   0.115833E-03 |   0.231851E-01 |   0.100000E-04
  19 |   0.290294E+00 |   0.995518E-04 |   0.288993E-04 |   0.977466E-04 |   0.165100E-01 |   0.100000E-04
  20 |   0.527994E+00 |   0.132373E-04 |   0.698924E-05 |   0.703477E-04 |   0.855152E-02 |   0.100000E-04
  21 |   0.434655E+00 |   0.689738E-05 |   0.299798E-05 |   0.469974E-04 |   0.381673E-02 |   0.100000E-04
  22 |   0.514866E+00 |   0.206021E-05 |   0.106073E-05 |   0.258633E-04 |   0.115588E-02 |   0.100000E-04
  23 |   0.615786E+00 |   0.541423E-06 |   0.333401E-06 |   0.127700E-04 |   0.281792E-03 |   0.100000E-04
  24 |   0.513142E+00 |   0.285058E-06 |   0.146275E-06 |   0.761620E-05 |   0.100235E-03 |   0.100000E-04
  25 |   0.438779E+00 |   0.831347E-07 |   0.364778E-07 |   0.528698E-05 |   0.483014E-04 |   0.100000E-04
  26 |   0.288634E+00 |   0.647516E-07 |   0.186895E-07 |   0.376393E-05 |   0.244809E-04 |   0.100000E-04
  27 |   0.550170E+00 |   0.999400E-08 |   0.549839E-08 |   0.194170E-05 |   0.651491E-05 |   0.100000E-04

 Charges are converged, EXIT

%%%% DENSITY %%%%%%%%%%%%%%%%%%%%%%%%%%%%%%%%%%%%%%%%%%%%%%%%%%%%%%%%%%%%%%%%%%%

 density label              = velectrostatic                                    

 integral of density        =   -182.0604536    

%%%% CHARGES %%%%%%%%%%%%%%%%%%%%%%%%%%%%%%%%%%%%%%%%%%%%%%%%%%%%%%%%%%%%%%%%%%%

 total number of charges    =             35

 total charge               =      0.0000000

%%%% DENSITY %%%%%%%%%%%%%%%%%%%%%%%%%%%%%%%%%%%%%%%%%%%%%%%%%%%%%%%%%%%%%%%%%%%

 density label              = vsoftcavity                                       

 integral of density        =    50.02793451    

%%%% DENSITY %%%%%%%%%%%%%%%%%%%%%%%%%%%%%%%%%%%%%%%%%%%%%%%%%%%%%%%%%%%%%%%%%%%

 density label              = dvtot                                             

 integral of density        =    1774.215191    

%%%% ELECTRONS %%%%%%%%%%%%%%%%%%%%%%%%%%%%%%%%%%%%%%%%%%%%%%%%%%%%%%%%%%%%%%%%%

 number of electrons        =             24

 total electronic charge    =     24.0000000

%%%% ELECTRONS %%%%%%%%%%%%%%%%%%%%%%%%%%%%%%%%%%%%%%%%%%%%%%%%%%%%%%%%%%%%%%%%%

 number of electrons        =             24

 total electronic charge    =     24.0000000

%%%% CHARGES %%%%%%%%%%%%%%%%%%%%%%%%%%%%%%%%%%%%%%%%%%%%%%%%%%%%%%%%%%%%%%%%%%%

 total number of charges    =             34

 total charge               =     -1.0000000

%%%% CHARGES %%%%%%%%%%%%%%%%%%%%%%%%%%%%%%%%%%%%%%%%%%%%%%%%%%%%%%%%%%%%%%%%%%%

 total number of charges    =             35

 total charge               =      0.0000000

%%%% BOUNDARY %%%%%%%%%%%%%%%%%%%%%%%%%%%%%%%%%%%%%%%%%%%%%%%%%%%%%%%%%%%%%%%%%%

 boundary label             = solvent             
 boundary mode              = full                

 boundary is built as a type-2 function of a smooth density

 using the modified SCCS function:
 rhomax                     =      0.0050000
 rhomin                     =      0.0001000

 volume of the QM region    =    713.5343008

 surface of the QM region   =    412.7747258

%%%% DENSITY %%%%%%%%%%%%%%%%%%%%%%%%%%%%%%%%%%%%%%%%%%%%%%%%%%%%%%%%%%%%%%%%%%%

 density label              = vreference                                        

 integral of density        =   -1906.247710    

%%%% COMPUTE ELECTROSTATIC POTENTIAL %%%%%%%%%%%%%%%%%%%%%%%%%%%%%%%%%%%%%%%%%%%

 Warning: Bad guess with residual norm =   0.148878E+05, reset to no guess

   i |      alpha     |       pAp      |      rzold     |    delta_qm    |    delta_en    |       tol
 ---------------------------------------------------------------------------------------------------------
   1 |   0.859252E+00 |   0.109047E+03 |   0.936989E+02 |   0.803161E-01 |   0.111468E+05 |   0.100000E-04
   2 |   0.398732E-01 |   0.778793E+04 |   0.310529E+03 |   0.100278E-01 |   0.173761E+03 |   0.100000E-04
   3 |   0.106720E+00 |   0.172672E+02 |   0.184275E+01 |   0.656272E-02 |   0.744237E+02 |   0.100000E-04
   4 |   0.157613E+00 |   0.932062E+00 |   0.146905E+00 |   0.599136E-02 |   0.620291E+02 |   0.100000E-04
   5 |   0.243873E+00 |   0.730789E-01 |   0.178220E-01 |   0.481341E-02 |   0.400359E+02 |   0.100000E-04
   6 |   0.252327E+00 |   0.415073E-01 |   0.104734E-01 |   0.313331E-02 |   0.169648E+02 |   0.100000E-04
   7 |   0.332341E+00 |   0.252774E-01 |   0.840073E-02 |   0.218306E-02 |   0.823525E+01 |   0.100000E-04
   8 |   0.431288E+00 |   0.107228E-01 |   0.462462E-02 |   0.128622E-02 |   0.285874E+01 |   0.100000E-04
   9 |   0.521593E+00 |   0.646027E-02 |   0.336963E-02 |   0.801293E-03 |   0.110950E+01 |   0.100000E-04
  10 |   0.412500E+00 |   0.414692E-02 |   0.171060E-02 |   0.821591E-03 |   0.116642E+01 |   0.100000E-04
  11 |   0.363077E+00 |   0.125837E-02 |   0.456886E-03 |   0.676886E-03 |   0.791726E+00 |   0.100000E-04
  12 |   0.428682E+00 |   0.675297E-03 |   0.289488E-03 |   0.493566E-03 |   0.420953E+00 |   0.100000E-04
  13 |   0.605414E+00 |   0.400589E-03 |   0.242523E-03 |   0.313393E-03 |   0.169716E+00 |   0.100000E-04
  14 |   0.416997E+00 |   0.496366E-03 |   0.206983E-03 |   0.334417E-03 |   0.193250E+00 |   0.100000E-04
  15 |   0.154409E+00 |   0.560779E-03 |   0.865895E-04 |   0.318892E-03 |   0.175724E+00 |   0.100000E-04
  16 |   0.115419E+00 |   0.178467E-02 |   0.205984E-03 |   0.287237E-03 |   0.142569E+00 |   0.100000E-04
  17 |   0.479019E+00 |   0.900980E-04 |   0.431587E-04 |   0.182318E-03 |   0.574387E-01 |   0.100000E-04
  18 |   0.372669E+00 |   0.836929E-04 |   0.311897E-04 |   0.116661E-03 |   0.235177E-01 |   0.100000E-04
  19 |   0.277622E+00 |   0.104778E-03 |   0.290889E-04 |   0.981554E-04 |   0.166484E-01 |   0.100000E-04
  20 |   0.515469E+00 |   0.140879E-04 |   0.726187E-05 |   0.712039E-04 |   0.876096E-02 |   0.100000E-04
  21 |   0.433067E+00 |   0.721548E-05 |   0.312479E-05 |   0.478796E-04 |   0.396137E-02 |   0.100000E-04
  22 |   0.513941E+00 |   0.206504E-05 |   0.106131E-05 |   0.267615E-04 |   0.123756E-02 |   0.100000E-04
  23 |   0.617912E+00 |   0.544394E-06 |   0.336388E-06 |   0.132528E-04 |   0.303499E-03 |   0.100000E-04
  24 |   0.527928E+00 |   0.283861E-06 |   0.149858E-06 |   0.776265E-05 |   0.104127E-03 |   0.100000E-04
  25 |   0.525368E+00 |   0.664386E-07 |   0.349047E-07 |   0.505025E-05 |   0.440727E-04 |   0.100000E-04
  26 |   0.341355E+00 |   0.337145E-07 |   0.115086E-07 |   0.357881E-05 |   0.221320E-04 |   0.100000E-04
  27 |   0.399762E+00 |   0.156677E-07 |   0.626333E-08 |   0.199055E-05 |   0.684685E-05 |   0.100000E-04

 Charges are converged, EXIT

%%%% DENSITY %%%%%%%%%%%%%%%%%%%%%%%%%%%%%%%%%%%%%%%%%%%%%%%%%%%%%%%%%%%%%%%%%%%

 density label              = velectrostatic                                    

 integral of density        =   -181.9983272    

%%%% CHARGES %%%%%%%%%%%%%%%%%%%%%%%%%%%%%%%%%%%%%%%%%%%%%%%%%%%%%%%%%%%%%%%%%%%

 total number of charges    =             35

 total charge               =      0.0000000

%%%% DENSITY %%%%%%%%%%%%%%%%%%%%%%%%%%%%%%%%%%%%%%%%%%%%%%%%%%%%%%%%%%%%%%%%%%%

 density label              = vsoftcavity                                       

 integral of density        =    49.20270212    

%%%% DENSITY %%%%%%%%%%%%%%%%%%%%%%%%%%%%%%%%%%%%%%%%%%%%%%%%%%%%%%%%%%%%%%%%%%%

 density label              = dvtot                                             

 integral of density        =    1773.452085    

%%%% ELECTRONS %%%%%%%%%%%%%%%%%%%%%%%%%%%%%%%%%%%%%%%%%%%%%%%%%%%%%%%%%%%%%%%%%

 number of electrons        =             24

 total electronic charge    =     24.0000000

%%%% ELECTRONS %%%%%%%%%%%%%%%%%%%%%%%%%%%%%%%%%%%%%%%%%%%%%%%%%%%%%%%%%%%%%%%%%

 number of electrons        =             24

 total electronic charge    =     24.0000000

%%%% CHARGES %%%%%%%%%%%%%%%%%%%%%%%%%%%%%%%%%%%%%%%%%%%%%%%%%%%%%%%%%%%%%%%%%%%

 total number of charges    =             34

 total charge               =     -1.0000000

%%%% CHARGES %%%%%%%%%%%%%%%%%%%%%%%%%%%%%%%%%%%%%%%%%%%%%%%%%%%%%%%%%%%%%%%%%%%

 total number of charges    =             35

 total charge               =     -0.0000000

%%%% BOUNDARY %%%%%%%%%%%%%%%%%%%%%%%%%%%%%%%%%%%%%%%%%%%%%%%%%%%%%%%%%%%%%%%%%%

 boundary label             = solvent             
 boundary mode              = full                

 boundary is built as a type-2 function of a smooth density

 using the modified SCCS function:
 rhomax                     =      0.0050000
 rhomin                     =      0.0001000

 volume of the QM region    =    713.1993638

 surface of the QM region   =    412.6871265

%%%% DENSITY %%%%%%%%%%%%%%%%%%%%%%%%%%%%%%%%%%%%%%%%%%%%%%%%%%%%%%%%%%%%%%%%%%%

 density label              = vreference                                        

 integral of density        =   -1906.247710    

%%%% COMPUTE ELECTROSTATIC POTENTIAL %%%%%%%%%%%%%%%%%%%%%%%%%%%%%%%%%%%%%%%%%%%

 Warning: Bad guess with residual norm =   0.149052E+05, reset to no guess

   i |      alpha     |       pAp      |      rzold     |    delta_qm    |    delta_en    |       tol
 ---------------------------------------------------------------------------------------------------------
   1 |   0.858728E+00 |   0.109096E+03 |   0.936836E+02 |   0.803184E-01 |   0.111474E+05 |   0.100000E-04
   2 |   0.398983E-01 |   0.780068E+04 |   0.311233E+03 |   0.101626E-01 |   0.178465E+03 |   0.100000E-04
   3 |   0.106966E+00 |   0.177742E+02 |   0.190123E+01 |   0.629710E-02 |   0.685212E+02 |   0.100000E-04
   4 |   0.155448E+00 |   0.979734E+00 |   0.152298E+00 |   0.576570E-02 |   0.574444E+02 |   0.100000E-04
   5 |   0.246189E+00 |   0.715747E-01 |   0.176209E-01 |   0.465090E-02 |   0.373781E+02 |   0.100000E-04
   6 |   0.252832E+00 |   0.411130E-01 |   0.103947E-01 |   0.303731E-02 |   0.159412E+02 |   0.100000E-04
   7 |   0.326902E+00 |   0.255327E-01 |   0.834668E-02 |   0.211544E-02 |   0.773297E+01 |   0.100000E-04
   8 |   0.430757E+00 |   0.105139E-01 |   0.452895E-02 |   0.125327E-02 |   0.271415E+01 |   0.100000E-04
   9 |   0.526875E+00 |   0.620010E-02 |   0.326668E-02 |   0.785742E-03 |   0.106685E+01 |   0.100000E-04
  10 |   0.410767E+00 |   0.409066E-02 |   0.168031E-02 |   0.801936E-03 |   0.111128E+01 |   0.100000E-04
  11 |   0.368363E+00 |   0.121260E-02 |   0.446677E-03 |   0.659538E-03 |   0.751663E+00 |   0.100000E-04
  12 |   0.427680E+00 |   0.669276E-03 |   0.286236E-03 |   0.483420E-03 |   0.403825E+00 |   0.100000E-04
  13 |   0.600170E+00 |   0.401375E-03 |   0.240893E-03 |   0.308305E-03 |   0.164249E+00 |   0.100000E-04
  14 |   0.413884E+00 |   0.496304E-03 |   0.205412E-03 |   0.323952E-03 |   0.181345E+00 |   0.100000E-04
  15 |   0.115194E+00 |   0.823597E-03 |   0.948737E-04 |   0.312333E-03 |   0.168569E+00 |   0.100000E-04
  16 |   0.154043E+00 |   0.109757E-02 |   0.169072E-03 |   0.277267E-03 |   0.132844E+00 |   0.100000E-04
  17 |   0.519508E+00 |   0.794760E-04 |   0.412884E-04 |   0.170724E-03 |   0.503656E-01 |   0.100000E-04
  18 |   0.569311E+00 |   0.447789E-04 |   0.254931E-04 |   0.104260E-03 |   0.187836E-01 |   0.100000E-04
  19 |   0.232104E+00 |   0.782676E-04 |   0.181662E-04 |   0.937790E-04 |   0.151969E-01 |   0.100000E-04
  20 |   0.383411E+00 |   0.221228E-04 |   0.848212E-05 |   0.695162E-04 |   0.835057E-02 |   0.100000E-04
  21 |   0.423254E+00 |   0.746538E-05 |   0.315975E-05 |   0.460745E-04 |   0.366831E-02 |   0.100000E-04
  22 |   0.516674E+00 |   0.198560E-05 |   0.102591E-05 |   0.256429E-04 |   0.113626E-02 |   0.100000E-04
  23 |   0.617123E+00 |   0.529362E-06 |   0.326681E-06 |   0.128367E-04 |   0.284741E-03 |   0.100000E-04
  24 |   0.529317E+00 |   0.272867E-06 |   0.144433E-06 |   0.764244E-05 |   0.100927E-03 |   0.100000E-04
  25 |   0.528404E+00 |   0.645576E-07 |   0.341125E-07 |   0.489356E-05 |   0.413802E-04 |   0.100000E-04
  26 |   0.361624E+00 |   0.298536E-07 |   0.107958E-07 |   0.339481E-05 |   0.199148E-04 |   0.100000E-04
  27 |   0.343901E+00 |   0.180648E-07 |   0.621250E-08 |   0.202981E-05 |   0.711956E-05 |   0.100000E-04

 Charges are converged, EXIT

%%%% DENSITY %%%%%%%%%%%%%%%%%%%%%%%%%%%%%%%%%%%%%%%%%%%%%%%%%%%%%%%%%%%%%%%%%%%

 density label              = velectrostatic                                    

 integral of density        =   -181.8097826    

%%%% CHARGES %%%%%%%%%%%%%%%%%%%%%%%%%%%%%%%%%%%%%%%%%%%%%%%%%%%%%%%%%%%%%%%%%%%

 total number of charges    =             35

 total charge               =     -0.0000000

%%%% DENSITY %%%%%%%%%%%%%%%%%%%%%%%%%%%%%%%%%%%%%%%%%%%%%%%%%%%%%%%%%%%%%%%%%%%

 density label              = vsoftcavity                                       

 integral of density        =    49.59904869    

%%%% DENSITY %%%%%%%%%%%%%%%%%%%%%%%%%%%%%%%%%%%%%%%%%%%%%%%%%%%%%%%%%%%%%%%%%%%

 density label              = dvtot                                             

 integral of density        =    1774.036976    

%%%% ELECTRONS %%%%%%%%%%%%%%%%%%%%%%%%%%%%%%%%%%%%%%%%%%%%%%%%%%%%%%%%%%%%%%%%%

 number of electrons        =             24

 total electronic charge    =     24.0000000

%%%% ELECTRONS %%%%%%%%%%%%%%%%%%%%%%%%%%%%%%%%%%%%%%%%%%%%%%%%%%%%%%%%%%%%%%%%%

 number of electrons        =             24

 total electronic charge    =     24.0000000

%%%% CHARGES %%%%%%%%%%%%%%%%%%%%%%%%%%%%%%%%%%%%%%%%%%%%%%%%%%%%%%%%%%%%%%%%%%%

 total number of charges    =             34

 total charge               =     -1.0000000

%%%% CHARGES %%%%%%%%%%%%%%%%%%%%%%%%%%%%%%%%%%%%%%%%%%%%%%%%%%%%%%%%%%%%%%%%%%%

 total number of charges    =             35

 total charge               =     -0.0000000

%%%% BOUNDARY %%%%%%%%%%%%%%%%%%%%%%%%%%%%%%%%%%%%%%%%%%%%%%%%%%%%%%%%%%%%%%%%%%

 boundary label             = solvent             
 boundary mode              = full                

 boundary is built as a type-2 function of a smooth density

 using the modified SCCS function:
 rhomax                     =      0.0050000
 rhomin                     =      0.0001000

 volume of the QM region    =    713.6546319

 surface of the QM region   =    412.9757165

%%%% DENSITY %%%%%%%%%%%%%%%%%%%%%%%%%%%%%%%%%%%%%%%%%%%%%%%%%%%%%%%%%%%%%%%%%%%

 density label              = vreference                                        

 integral of density        =   -1906.247710    

%%%% COMPUTE ELECTROSTATIC POTENTIAL %%%%%%%%%%%%%%%%%%%%%%%%%%%%%%%%%%%%%%%%%%%

 Warning: Bad guess with residual norm =   0.151898E+05, reset to no guess

   i |      alpha     |       pAp      |      rzold     |    delta_qm    |    delta_en    |       tol
 ---------------------------------------------------------------------------------------------------------
   1 |   0.857287E+00 |   0.109279E+03 |   0.936839E+02 |   0.809491E-01 |   0.113232E+05 |   0.100000E-04
   2 |   0.399786E-01 |   0.783780E+04 |   0.313344E+03 |   0.105670E-01 |   0.192952E+03 |   0.100000E-04
   3 |   0.107437E+00 |   0.188675E+02 |   0.202707E+01 |   0.600479E-02 |   0.623075E+02 |   0.100000E-04
   4 |   0.151278E+00 |   0.108086E+01 |   0.163511E+00 |   0.552155E-02 |   0.526824E+02 |   0.100000E-04
   5 |   0.246776E+00 |   0.707937E-01 |   0.174702E-01 |   0.450331E-02 |   0.350435E+02 |   0.100000E-04
   6 |   0.253788E+00 |   0.399398E-01 |   0.101362E-01 |   0.297187E-02 |   0.152617E+02 |   0.100000E-04
   7 |   0.321820E+00 |   0.253897E-01 |   0.817091E-02 |   0.208323E-02 |   0.749926E+01 |   0.100000E-04
   8 |   0.431568E+00 |   0.102247E-01 |   0.441265E-02 |   0.124843E-02 |   0.269323E+01 |   0.100000E-04
   9 |   0.543484E+00 |   0.584318E-02 |   0.317568E-02 |   0.766172E-03 |   0.101437E+01 |   0.100000E-04
  10 |   0.407256E+00 |   0.417547E-02 |   0.170048E-02 |   0.770584E-03 |   0.102609E+01 |   0.100000E-04
  11 |   0.362343E+00 |   0.122504E-02 |   0.443883E-03 |   0.634940E-03 |   0.696640E+00 |   0.100000E-04
  12 |   0.424697E+00 |   0.655670E-03 |   0.278461E-03 |   0.473490E-03 |   0.387406E+00 |   0.100000E-04
  13 |   0.612201E+00 |   0.374545E-03 |   0.229297E-03 |   0.304768E-03 |   0.160502E+00 |   0.100000E-04
  14 |   0.422045E+00 |   0.485535E-03 |   0.204918E-03 |   0.307814E-03 |   0.163727E+00 |   0.100000E-04
  15 |   0.382726E+00 |   0.190755E-03 |   0.730069E-04 |   0.275633E-03 |   0.131283E+00 |   0.100000E-04
  16 |   0.548128E-01 |   0.260353E-02 |   0.142707E-03 |   0.264909E-03 |   0.121266E+00 |   0.100000E-04
  17 |   0.422267E+00 |   0.113634E-03 |   0.479838E-04 |   0.166562E-03 |   0.479397E-01 |   0.100000E-04
  18 |   0.488421E+00 |   0.515228E-04 |   0.251649E-04 |   0.106514E-03 |   0.196045E-01 |   0.100000E-04
  19 |   0.228131E+00 |   0.107177E-03 |   0.244504E-04 |   0.940448E-04 |   0.152832E-01 |   0.100000E-04
  20 |   0.452354E+00 |   0.168196E-04 |   0.760840E-05 |   0.678655E-04 |   0.795869E-02 |   0.100000E-04
  21 |   0.433994E+00 |   0.720300E-05 |   0.312606E-05 |   0.435720E-04 |   0.328064E-02 |   0.100000E-04
  22 |   0.512322E+00 |   0.187268E-05 |   0.959415E-06 |   0.245803E-04 |   0.104404E-02 |   0.100000E-04
  23 |   0.611385E+00 |   0.507253E-06 |   0.310127E-06 |   0.126968E-04 |   0.278569E-03 |   0.100000E-04
  24 |   0.545956E+00 |   0.252026E-06 |   0.137595E-06 |   0.758088E-05 |   0.993076E-04 |   0.100000E-04
  25 |   0.540261E+00 |   0.619110E-07 |   0.334481E-07 |   0.472509E-05 |   0.385801E-04 |   0.100000E-04
  26 |   0.440612E+00 |   0.205461E-07 |   0.905287E-08 |   0.301768E-05 |   0.157358E-04 |   0.100000E-04
  27 |   0.355342E+00 |   0.145001E-07 |   0.515250E-08 |   0.182589E-05 |   0.576093E-05 |   0.100000E-04

 Charges are converged, EXIT

%%%% DENSITY %%%%%%%%%%%%%%%%%%%%%%%%%%%%%%%%%%%%%%%%%%%%%%%%%%%%%%%%%%%%%%%%%%%

 density label              = velectrostatic                                    

 integral of density        =   -181.5836017    

%%%% CHARGES %%%%%%%%%%%%%%%%%%%%%%%%%%%%%%%%%%%%%%%%%%%%%%%%%%%%%%%%%%%%%%%%%%%

 total number of charges    =             35

 total charge               =     -0.0000000

%%%% DENSITY %%%%%%%%%%%%%%%%%%%%%%%%%%%%%%%%%%%%%%%%%%%%%%%%%%%%%%%%%%%%%%%%%%%

 density label              = vsoftcavity                                       

 integral of density        =    49.46344284    

%%%% DENSITY %%%%%%%%%%%%%%%%%%%%%%%%%%%%%%%%%%%%%%%%%%%%%%%%%%%%%%%%%%%%%%%%%%%

 density label              = dvtot                                             

 integral of density        =    1774.127551    

%%%% ELECTRONS %%%%%%%%%%%%%%%%%%%%%%%%%%%%%%%%%%%%%%%%%%%%%%%%%%%%%%%%%%%%%%%%%

 number of electrons        =             24

 total electronic charge    =     24.0000000

%%%% ELECTRONS %%%%%%%%%%%%%%%%%%%%%%%%%%%%%%%%%%%%%%%%%%%%%%%%%%%%%%%%%%%%%%%%%

 number of electrons        =             24

 total electronic charge    =     24.0000000

%%%% CHARGES %%%%%%%%%%%%%%%%%%%%%%%%%%%%%%%%%%%%%%%%%%%%%%%%%%%%%%%%%%%%%%%%%%%

 total number of charges    =             34

 total charge               =     -1.0000000

%%%% CHARGES %%%%%%%%%%%%%%%%%%%%%%%%%%%%%%%%%%%%%%%%%%%%%%%%%%%%%%%%%%%%%%%%%%%

 total number of charges    =             35

 total charge               =      0.0000000

%%%% BOUNDARY %%%%%%%%%%%%%%%%%%%%%%%%%%%%%%%%%%%%%%%%%%%%%%%%%%%%%%%%%%%%%%%%%%

 boundary label             = solvent             
 boundary mode              = full                

 boundary is built as a type-2 function of a smooth density

 using the modified SCCS function:
 rhomax                     =      0.0050000
 rhomin                     =      0.0001000

 volume of the QM region    =    713.7700729

 surface of the QM region   =    413.0379043

%%%% DENSITY %%%%%%%%%%%%%%%%%%%%%%%%%%%%%%%%%%%%%%%%%%%%%%%%%%%%%%%%%%%%%%%%%%%

 density label              = vreference                                        

 integral of density        =   -1906.247710    

%%%% COMPUTE ELECTROSTATIC POTENTIAL %%%%%%%%%%%%%%%%%%%%%%%%%%%%%%%%%%%%%%%%%%%

 Warning: Bad guess with residual norm =   0.153132E+05, reset to no guess

   i |      alpha     |       pAp      |      rzold     |    delta_qm    |    delta_en    |       tol
 ---------------------------------------------------------------------------------------------------------
   1 |   0.856625E+00 |   0.109373E+03 |   0.936920E+02 |   0.812169E-01 |   0.113982E+05 |   0.100000E-04
   2 |   0.400185E-01 |   0.785206E+04 |   0.314228E+03 |   0.108873E-01 |   0.204827E+03 |   0.100000E-04
   3 |   0.107708E+00 |   0.195803E+02 |   0.210897E+01 |   0.581260E-02 |   0.583828E+02 |   0.100000E-04
   4 |   0.149218E+00 |   0.114372E+01 |   0.170664E+00 |   0.533999E-02 |   0.492747E+02 |   0.100000E-04
   5 |   0.246781E+00 |   0.704867E-01 |   0.173948E-01 |   0.437872E-02 |   0.331313E+02 |   0.100000E-04
   6 |   0.254481E+00 |   0.391515E-01 |   0.996330E-02 |   0.289954E-02 |   0.145279E+02 |   0.100000E-04
   7 |   0.318488E+00 |   0.253446E-01 |   0.807193E-02 |   0.203426E-02 |   0.715087E+01 |   0.100000E-04
   8 |   0.431077E+00 |   0.100399E-01 |   0.432796E-02 |   0.122846E-02 |   0.260773E+01 |   0.100000E-04
   9 |   0.550697E+00 |   0.560750E-02 |   0.308803E-02 |   0.752924E-03 |   0.979593E+00 |   0.100000E-04
  10 |   0.406992E+00 |   0.415356E-02 |   0.169046E-02 |   0.750153E-03 |   0.972398E+00 |   0.100000E-04
  11 |   0.366917E+00 |   0.118204E-02 |   0.433709E-03 |   0.616699E-03 |   0.657190E+00 |   0.100000E-04
  12 |   0.422434E+00 |   0.648249E-03 |   0.273842E-03 |   0.465142E-03 |   0.373865E+00 |   0.100000E-04
  13 |   0.609849E+00 |   0.370031E-03 |   0.225663E-03 |   0.301130E-03 |   0.156694E+00 |   0.100000E-04
  14 |   0.420614E+00 |   0.484687E-03 |   0.203866E-03 |   0.296972E-03 |   0.152396E+00 |   0.100000E-04
  15 |   0.255784E+00 |   0.297555E-03 |   0.761097E-04 |   0.274953E-03 |   0.130636E+00 |   0.100000E-04
  16 |   0.695191E-01 |   0.323244E-02 |   0.224716E-03 |   0.256079E-03 |   0.113316E+00 |   0.100000E-04
  17 |   0.508102E+00 |   0.792478E-04 |   0.402659E-04 |   0.160844E-03 |   0.447050E-01 |   0.100000E-04
  18 |   0.627179E+00 |   0.361285E-04 |   0.226590E-04 |   0.102147E-03 |   0.180299E-01 |   0.100000E-04
  19 |   0.339613E+00 |   0.358387E-04 |   0.121713E-04 |   0.854326E-04 |   0.126122E-01 |   0.100000E-04
  20 |   0.265016E+00 |   0.320057E-04 |   0.848200E-05 |   0.653170E-04 |   0.737219E-02 |   0.100000E-04
  21 |   0.382893E+00 |   0.869584E-05 |   0.332958E-05 |   0.415671E-04 |   0.298568E-02 |   0.100000E-04
  22 |   0.505178E+00 |   0.182923E-05 |   0.924086E-06 |   0.236044E-04 |   0.962782E-03 |   0.100000E-04
  23 |   0.605452E+00 |   0.498030E-06 |   0.301533E-06 |   0.125132E-04 |   0.270570E-03 |   0.100000E-04
  24 |   0.554169E+00 |   0.239394E-06 |   0.132664E-06 |   0.757965E-05 |   0.992755E-04 |   0.100000E-04
  25 |   0.524485E+00 |   0.638149E-07 |   0.334700E-07 |   0.467249E-05 |   0.377260E-04 |   0.100000E-04
  26 |   0.356343E+00 |   0.300692E-07 |   0.107149E-07 |   0.320274E-05 |   0.177251E-04 |   0.100000E-04
  27 |   0.372533E+00 |   0.151198E-07 |   0.563262E-08 |   0.187442E-05 |   0.607126E-05 |   0.100000E-04

 Charges are converged, EXIT

%%%% DENSITY %%%%%%%%%%%%%%%%%%%%%%%%%%%%%%%%%%%%%%%%%%%%%%%%%%%%%%%%%%%%%%%%%%%

 density label              = velectrostatic                                    

 integral of density        =   -181.4864910    

%%%% CHARGES %%%%%%%%%%%%%%%%%%%%%%%%%%%%%%%%%%%%%%%%%%%%%%%%%%%%%%%%%%%%%%%%%%%

 total number of charges    =             35

 total charge               =      0.0000000

%%%% DENSITY %%%%%%%%%%%%%%%%%%%%%%%%%%%%%%%%%%%%%%%%%%%%%%%%%%%%%%%%%%%%%%%%%%%

 density label              = vsoftcavity                                       

 integral of density        =    49.77756490    

%%%% DENSITY %%%%%%%%%%%%%%%%%%%%%%%%%%%%%%%%%%%%%%%%%%%%%%%%%%%%%%%%%%%%%%%%%%%

 density label              = dvtot                                             

 integral of density        =    1774.538784    

%%%% ELECTRONS %%%%%%%%%%%%%%%%%%%%%%%%%%%%%%%%%%%%%%%%%%%%%%%%%%%%%%%%%%%%%%%%%

 number of electrons        =             24

 total electronic charge    =     24.0000000

%%%% ELECTRONS %%%%%%%%%%%%%%%%%%%%%%%%%%%%%%%%%%%%%%%%%%%%%%%%%%%%%%%%%%%%%%%%%

 number of electrons        =             24

 total electronic charge    =     24.0000000

%%%% CHARGES %%%%%%%%%%%%%%%%%%%%%%%%%%%%%%%%%%%%%%%%%%%%%%%%%%%%%%%%%%%%%%%%%%%

 total number of charges    =             34

 total charge               =     -1.0000000

%%%% CHARGES %%%%%%%%%%%%%%%%%%%%%%%%%%%%%%%%%%%%%%%%%%%%%%%%%%%%%%%%%%%%%%%%%%%

 total number of charges    =             35

 total charge               =      0.0000000

%%%% BOUNDARY %%%%%%%%%%%%%%%%%%%%%%%%%%%%%%%%%%%%%%%%%%%%%%%%%%%%%%%%%%%%%%%%%%

 boundary label             = solvent             
 boundary mode              = full                

 boundary is built as a type-2 function of a smooth density

 using the modified SCCS function:
 rhomax                     =      0.0050000
 rhomin                     =      0.0001000

 volume of the QM region    =    713.7700729

 surface of the QM region   =    413.0379043

%%%% DENSITY %%%%%%%%%%%%%%%%%%%%%%%%%%%%%%%%%%%%%%%%%%%%%%%%%%%%%%%%%%%%%%%%%%%

 density label              = dvtot                                             

 integral of density        =    1774.538784    

%%%% DENSITY %%%%%%%%%%%%%%%%%%%%%%%%%%%%%%%%%%%%%%%%%%%%%%%%%%%%%%%%%%%%%%%%%%%

 density label              = vreference                                        

 integral of density        =   -1906.247710    

%%%% DENSITY %%%%%%%%%%%%%%%%%%%%%%%%%%%%%%%%%%%%%%%%%%%%%%%%%%%%%%%%%%%%%%%%%%%

 density label              = velectrostatic                                    

 integral of density        =   -181.4864910    

%%%% CHARGES %%%%%%%%%%%%%%%%%%%%%%%%%%%%%%%%%%%%%%%%%%%%%%%%%%%%%%%%%%%%%%%%%%%

 total number of charges    =             34

 total charge               =     -1.0000000

%%%% DENSITY %%%%%%%%%%%%%%%%%%%%%%%%%%%%%%%%%%%%%%%%%%%%%%%%%%%%%%%%%%%%%%%%%%%

 density label              = vsoftcavity                                       

 integral of density        =    49.77756490    
