
     Program PWSCF v.6.5 starts on  2Jun2020 at 10:54: 8 

     This program is part of the open-source Quantum ESPRESSO suite
     for quantum simulation of materials; please cite
         "P. Giannozzi et al., J. Phys.:Condens. Matter 21 395502 (2009);
         "P. Giannozzi et al., J. Phys.:Condens. Matter 29 465901 (2017);
          URL http://www.quantum-espresso.org", 
     in publications or presentations arising from this work. More details at
     http://www.quantum-espresso.org/quote

     Parallel version (MPI), running on     1 processors

     MPI processes distributed on     1 nodes
     Reading input from neutral.in

     Current dimensions of program PWSCF are:
     Max number of different atomic species (ntypx) = 10
     Max number of k-points (npk) =  40000
     Max angular momentum in pseudopotentials (lmaxx) =  3
               file H.pbe-rrkjus.UPF: wavefunction(s)  1S renormalized
               file O.pbe-rrkjus.UPF: wavefunction(s)  2S renormalized

     gamma-point specific algorithms are used

     Subspace diagonalization in iterative solution of the eigenvalue problem:
     a serial algorithm will be used

 
     G-vector sticks info
     --------------------
     sticks:   dense  smooth     PW     G-vecs:    dense   smooth      PW
     Sum        9549    3809    949               701475   177509   22119
 


     bravais-lattice index     =            1
     lattice parameter (alat)  =      20.0000  a.u.
     unit-cell volume          =    8000.0000 (a.u.)^3
     number of atoms/cell      =            3
     number of atomic types    =            2
     number of electrons       =         8.00
     number of Kohn-Sham states=            4
     kinetic-energy cutoff     =      30.0000  Ry
     charge density cutoff     =     300.0000  Ry
     convergence threshold     =      5.0E-03
     mixing beta               =       0.7000
     number of iterations used =            8  plain     mixing
     Exchange-correlation= SLA PW PBE PBE
                           (   1   4   3   4   0   0   0)
 

     Environ Module
     ==============

     Plese cite
         O. Andreussi, I. Dabo and N. Marzari, J. Chem. Phys. 136, 064102 (2012)         
     in publications or presentations arising from this work.

     compensation onset threshold      =               0.1000E+03 
     static permittivity               =                   100.00 
     epsilon calculation mode          =               electronic 

     Electrostatic Setup
     -------------------
     electrostatic problem to solve    = generalized              
     numerical solver adopted          = cg                       
     type of auxiliary density adopted = none                     
     type of core tool for poisson     = fft                      
     type of core tool for s(r) deriv  = analytic                 


     Assuming isolated system, Martyna-Tuckerman method


     celldm(1)=  20.000000  celldm(2)=   0.000000  celldm(3)=   0.000000
     celldm(4)=   0.000000  celldm(5)=   0.000000  celldm(6)=   0.000000

     crystal axes: (cart. coord. in units of alat)
               a(1) = (   1.000000   0.000000   0.000000 )  
               a(2) = (   0.000000   1.000000   0.000000 )  
               a(3) = (   0.000000   0.000000   1.000000 )  

     reciprocal axes: (cart. coord. in units 2 pi/alat)
               b(1) = (  1.000000  0.000000  0.000000 )  
               b(2) = (  0.000000  1.000000  0.000000 )  
               b(3) = (  0.000000  0.000000  1.000000 )  


     PseudoPot. # 1 for H  read from file:
     /Users/oliviero/PWSCF/espresso-git/Environ/tests/../..//pseudo/H.pbe-rrkjus.UPF
     MD5 check sum: c83ea3de345bb23415749eb2bdbc784b
     Pseudo is Ultrasoft, Zval =  1.0
     Generated by new atomic code, or converted to UPF format
     Using radial grid of 1061 points,  2 beta functions with: 
                l(1) =   0
                l(2) =   0
     Q(r) pseudized with 0 coefficients 


     PseudoPot. # 2 for O  read from file:
     /Users/oliviero/PWSCF/espresso-git/Environ/tests/../..//pseudo/O.pbe-rrkjus.UPF
     MD5 check sum: 932f1ddd01dba2749558f1893c74a415
     Pseudo is Ultrasoft, Zval =  6.0
     Generated by new atomic code, or converted to UPF format
     Using radial grid of 1269 points,  4 beta functions with: 
                l(1) =   0
                l(2) =   0
                l(3) =   1
                l(4) =   1
     Q(r) pseudized with 0 coefficients 


     atomic species   valence    mass     pseudopotential
        H              1.00     1.00000     H ( 1.00)
        O              6.00    16.00000     O ( 1.00)

     No symmetry found



   Cartesian axes

     site n.     atom                  positions (alat units)
         1           O   tau(   1) = (   0.5895000   0.6025000   0.5750000  )
         2           H   tau(   2) = (   0.6725000   0.5610000   0.5750000  )
         3           H   tau(   3) = (   0.5280000   0.5330000   0.5750000  )

     number of k points=     1
                       cart. coord. in units 2pi/alat
        k(    1) = (   0.0000000   0.0000000   0.0000000), wk =   2.0000000

     Dense  grid:   350738 G-vectors     FFT dimensions: ( 120, 120, 120)

     Smooth grid:    88755 G-vectors     FFT dimensions: (  72,  72,  72)

     Estimated max dynamical RAM per process >     548.70 MB

     Initial potential from superposition of free atoms

     starting charge    7.80759, renormalised to    8.00000

     negative rho (up, down):  7.936E-04 0.000E+00
     Starting wfcs are    6 randomized atomic wfcs

     total cpu time spent up to now is        3.9 secs

     Self-consistent Calculation

     iteration #  1     ecut=    30.00 Ry     beta= 0.70
     Davidson diagonalization with overlap
     ethr =  1.00E-02,  avg # of iterations =  2.0

     negative rho (up, down):  2.375E-04 0.000E+00

     add environment contribution to local potential
     polarization accuracy = 8.2E-06, # of iterations =  12

     total cpu time spent up to now is        7.3 secs

     total energy              =     -34.04964848 Ry
     Harris-Foulkes estimate   =     -34.58846557 Ry
     estimated scf accuracy    <       0.69626710 Ry
     electrostatic embedding   =       0.00000000 Ry
     correction to one-el term =       0.00000000 Ry

     iteration #  2     ecut=    30.00 Ry     beta= 0.70
     Davidson diagonalization with overlap
     ethr =  8.70E-03,  avg # of iterations =  2.0

     negative rho (up, down):  2.928E-03 0.000E+00

     add environment contribution to local potential
     polarization accuracy = 5.3E-06, # of iterations =  14

     total cpu time spent up to now is       11.7 secs

     total energy              =     -34.20203542 Ry
     Harris-Foulkes estimate   =     -33.91029366 Ry
     estimated scf accuracy    <       0.37977348 Ry
     electrostatic embedding   =      -0.03946616 Ry
     correction to one-el term =      -0.44666269 Ry

     iteration #  3     ecut=    30.00 Ry     beta= 0.70
     Davidson diagonalization with overlap
     ethr =  4.75E-03,  avg # of iterations =  2.0

     negative rho (up, down):  3.738E-04 0.000E+00

     add environment contribution to local potential
     polarization accuracy = 5.0E-06, # of iterations =  14

     total cpu time spent up to now is       16.0 secs

     total energy              =     -34.29090346 Ry
     Harris-Foulkes estimate   =     -33.95630349 Ry
     estimated scf accuracy    <       0.01256723 Ry
     electrostatic embedding   =      -0.02917668 Ry
     correction to one-el term =      -0.31228833 Ry

     iteration #  4     ecut=    30.00 Ry     beta= 0.70
     Davidson diagonalization with overlap
     ethr =  1.57E-04,  avg # of iterations =  2.0

     negative rho (up, down):  2.069E-04 0.000E+00

     the potential shift due to the Gaussian-smeared nuclei is    -0.0214 ev

     total cpu time spent up to now is       17.8 secs

     End of self-consistent calculation

          k = 0.0000 0.0000 0.0000 ( 11060 PWs)   bands (ev):

   -24.6842 -12.4505  -8.9092  -6.9429

     highest occupied level (ev):    -6.9429

!    total energy              =     -34.29555650 Ry
     Harris-Foulkes estimate   =     -34.16363106 Ry
     estimated scf accuracy    <       0.00018885 Ry

     The total energy is the sum of the following terms:

     one-electron contribution =     -81.86161587 Ry
     hartree contribution      =      42.49106053 Ry
     xc contribution           =      -8.40345526 Ry
     ewald contribution        =      13.61041234 Ry
     electrostatic embedding   =      -0.03330342 Ry
     correction to one-el term =      -0.09865482 Ry

     convergence has been achieved in   4 iterations

     Forces acting on atoms (cartesian axes, Ry/au):

     atom    1 type  2   force =     0.00282356   -0.01470645    0.00000097
     atom    2 type  1   force =    -0.01124895    0.00542120   -0.00000565
     atom    3 type  1   force =     0.00842539    0.00928525    0.00000468

     Total force =     0.023182     Total SCF correction =     0.029561
     SCF correction compared to forces is large: reduce conv_thr to get better values

     Writing output data file /Users/oliviero/PWSCF/espresso-git/Environ/tests/../..//tempdir/pwscf.save/
 
     init_run     :      3.30s CPU      3.66s WALL (       1 calls)
     electrons    :     11.87s CPU     13.95s WALL (       1 calls)
     forces       :      0.54s CPU      0.66s WALL (       1 calls)

     Called by init_run:
     wfcinit      :      0.04s CPU      0.04s WALL (       1 calls)
     potinit      :      1.13s CPU      1.29s WALL (       1 calls)
     hinit0       :      1.77s CPU      1.81s WALL (       1 calls)

     Called by electrons:
     c_bands      :      0.28s CPU      0.31s WALL (       4 calls)
     sum_band     :      1.07s CPU      1.44s WALL (       4 calls)
     v_of_rho     :      2.58s CPU      3.15s WALL (       5 calls)
     newd         :      0.99s CPU      1.42s WALL (       5 calls)
     mix_rho      :      0.21s CPU      0.28s WALL (       4 calls)

     Called by c_bands:
     init_us_2    :      0.02s CPU      0.02s WALL (       9 calls)
     regterg      :      0.27s CPU      0.28s WALL (       4 calls)

     Called by sum_band:
     sum_band:bec :      0.00s CPU      0.00s WALL (       4 calls)
     addusdens    :      0.85s CPU      1.22s WALL (       4 calls)

     Called by *egterg:
     h_psi        :      0.28s CPU      0.28s WALL (      13 calls)
     s_psi        :      0.00s CPU      0.00s WALL (      13 calls)
     g_psi        :      0.00s CPU      0.00s WALL (       8 calls)
     rdiaghg      :      0.00s CPU      0.00s WALL (      12 calls)

     Called by h_psi:
     h_psi:calbec :      0.00s CPU      0.00s WALL (      13 calls)
     vloc_psi     :      0.27s CPU      0.28s WALL (      13 calls)
     add_vuspsi   :      0.00s CPU      0.00s WALL (      13 calls)

     General routines
     calbec       :      0.01s CPU      0.01s WALL (      21 calls)
     fft          :      4.08s CPU      4.18s WALL (     202 calls)
     ffts         :      0.03s CPU      0.03s WALL (       9 calls)
     fftw         :      0.21s CPU      0.22s WALL (      62 calls)
     interpolate  :      0.16s CPU      0.20s WALL (       5 calls)
 
     Parallel routines
 
     Environ routines
     calc_eelect  :      0.01s CPU      0.01s WALL (       8 calls)
     calc_velect  :      4.37s CPU      4.88s WALL (       6 calls)
     dielectric   :      0.30s CPU      0.34s WALL (       6 calls)
     calc_felect  :      0.11s CPU      0.12s WALL (       1 calls)
 
     PWSCF        :     15.94s CPU     18.59s WALL

 
   This run was terminated on:  10:54:26   2Jun2020            

=------------------------------------------------------------------------------=
   JOB DONE.
=------------------------------------------------------------------------------=

%%%% IONS %%%%%%%%%%%%%%%%%%%%%%%%%%%%%%%%%%%%%%%%%%%%%%%%%%%%%%%%%%%%%%%%%%%%%%
 number of ions             =          3
 ionic center of charge     =      0.5921875     0.5886250     0.5750000
 total ionic charge         =     -8.0000000
 ionic dipole               =      0.0000000     0.0000000     0.0000000
 ionic quadrupole (pc)      =     -4.2453875    -2.0049500     0.0000000
 ionic quadrupole (gauss)   =     -5.2453875    -3.0049500    -1.0000000
 ion   1 type =  2 coordinates =     11.7900000    12.0500000    11.5000000
 ion   2 type =  1 coordinates =     13.4500000    11.2200000    11.5000000
 ion   3 type =  1 coordinates =     10.5600000    10.6600000    11.5000000

%%%% SYSTEM %%%%%%%%%%%%%%%%%%%%%%%%%%%%%%%%%%%%%%%%%%%%%%%%%%%%%%%%%%%%%%%%%%%%
 system is built from all present ionic types
 system defined dimension   =  0 
 system defined axis        =  3 
 system center              =      0.5921875     0.5886250     0.5750000 
 system width               =      0.0849363 

%%%% ELECTRONS %%%%%%%%%%%%%%%%%%%%%%%%%%%%%%%%%%%%%%%%%%%%%%%%%%%%%%%%%%%%%%%%%
 number of electrons        =          8
 total electronic charge    =      8.0000000

%%%% BOUNDARY %%%%%%%%%%%%%%%%%%%%%%%%%%%%%%%%%%%%%%%%%%%%%%%%%%%%%%%%%%%%%%%%%%
 boundary label             = solvent              
 boundary mode              = electronic           
 boundary is built as a function of a smooth density
 function type              =  2 
 using the modified SCCS function with parameters 
 rhomax                     =      0.0050000 
 rhomin                     =      0.0001000 
 volume of the QM region    =    925.9497833 
 surface of the QM region   =    444.2662167 

%%%% DIELECTRIC %%%%%%%%%%%%%%%%%%%%%%%%%%%%%%%%%%%%%%%%%%%%%%%%%%%%%%%%%%%%%%%%%
 dielectric build on homogeneous background
 environment bulk permitt.  =    100.0000000 
 dielectric flags
 need gradient              =  F 
 need factor depend. sqrt   =  T 
 total dielectric charge    =      0.0000000

%%%% DENSITY %%%%%%%%%%%%%%%%%%%%%%%%%%%%%%%%%%%%%%%%%%%%%%%%%%%%%%%%%%%%%%%%%%%
 density label              = vreference                                                                      
 integral of density        =      0.000000000    

%%%% DENSITY %%%%%%%%%%%%%%%%%%%%%%%%%%%%%%%%%%%%%%%%%%%%%%%%%%%%%%%%%%%%%%%%%%%
 density label              = velectrostatic                                                                  
 integral of density        =      0.000000000    

%%%% CHARGES %%%%%%%%%%%%%%%%%%%%%%%%%%%%%%%%%%%%%%%%%%%%%%%%%%%%%%%%%%%%%%%%%%%
 total number of charges    =         11
 total charge               =     -0.0000000

%%%% DENSITY %%%%%%%%%%%%%%%%%%%%%%%%%%%%%%%%%%%%%%%%%%%%%%%%%%%%%%%%%%%%%%%%%%%
 density label              = vsoftcavity                                                                     
 integral of density        =      0.000000000    

%%%% ELECTRONS %%%%%%%%%%%%%%%%%%%%%%%%%%%%%%%%%%%%%%%%%%%%%%%%%%%%%%%%%%%%%%%%%
 number of electrons        =          8
 total electronic charge    =      8.0000000

%%%% BOUNDARY %%%%%%%%%%%%%%%%%%%%%%%%%%%%%%%%%%%%%%%%%%%%%%%%%%%%%%%%%%%%%%%%%%
 boundary label             = solvent              
 boundary mode              = electronic           
 boundary is built as a function of a smooth density
 function type              =  2 
 using the modified SCCS function with parameters 
 rhomax                     =      0.0050000 
 rhomin                     =      0.0001000 
 volume of the QM region    =    307.0527068 
 surface of the QM region   =    219.1827538 

%%%% DIELECTRIC %%%%%%%%%%%%%%%%%%%%%%%%%%%%%%%%%%%%%%%%%%%%%%%%%%%%%%%%%%%%%%%%%
 dielectric build on homogeneous background
 environment bulk permitt.  =    100.0000000 
 dielectric flags
 need gradient              =  F 
 need factor depend. sqrt   =  T 
 total dielectric charge    =      0.0000000

%%%% DENSITY %%%%%%%%%%%%%%%%%%%%%%%%%%%%%%%%%%%%%%%%%%%%%%%%%%%%%%%%%%%%%%%%%%%
 density label              = vreference                                                                      
 integral of density        =    -0.1594661851E-10

%%%% COMPUTE ELECTROSTATIC POTENTIAL %%%%%%%%%%%%%%%%%%%%%%%%%%%%%%%%%%%%%%%%%%%
 Iteration #          1
  pAp =    27.2722089773086       rzold =    26.1226020017215       alpha = 
  0.957846943144812     
 delta_qm =   0.130861E-01 delta_en =   0.295913E+03 tol =   0.100000E-04
 Iteration #          2
  pAp =    200.909340402186       rzold =    13.1644774516674       alpha = 
  6.552446703231615E-002
 delta_qm =   0.499409E-02 delta_en =   0.430979E+02 tol =   0.100000E-04
 Iteration #          3
  pAp =    4.99089314602113       rzold =   0.770441530908413       alpha = 
  0.154369470226512     
 delta_qm =   0.925224E-03 delta_en =   0.147924E+01 tol =   0.100000E-04
 Iteration #          4
  pAp =   5.503454823275943E-002  rzold =   1.434194472825647E-002  alpha = 
  0.260598936282708     
 delta_qm =   0.441999E-03 delta_en =   0.337587E+00 tol =   0.100000E-04
 Iteration #          5
  pAp =   1.367486268107452E-003  rzold =   8.162172502169648E-004  alpha = 
  0.596874183860418     
 delta_qm =   0.112849E-03 delta_en =   0.220060E-01 tol =   0.100000E-04
 Iteration #          6
  pAp =   2.706072131341685E-004  rzold =   1.030096847512286E-004  alpha = 
  0.380661267518231     
 delta_qm =   0.498787E-04 delta_en =   0.429907E-02 tol =   0.100000E-04
 Iteration #          7
  pAp =   4.694170167543921E-006  rzold =   4.260219259947346E-006  alpha = 
  0.907555352254384     
 delta_qm =   0.318193E-04 delta_en =   0.174955E-02 tol =   0.100000E-04
 Iteration #          8
  pAp =   4.740839067875325E-006  rzold =   3.093059164396794E-006  alpha = 
  0.652428635545942     
 delta_qm =   0.231140E-04 delta_en =   0.923197E-03 tol =   0.100000E-04
 Iteration #          9
  pAp =   6.453810706272156E-006  rzold =   2.468729533420618E-006  alpha = 
  0.382522767676061     
 delta_qm =   0.170972E-04 delta_en =   0.505119E-03 tol =   0.100000E-04
 Iteration #         10
  pAp =   3.375125583509444E-006  rzold =   1.047829688315484E-006  alpha = 
  0.310456503732805     
 delta_qm =   0.112032E-04 delta_en =   0.216885E-03 tol =   0.100000E-04
 Iteration #         11
  pAp =   4.455663368035577E-007  rzold =   2.835998161445445E-007  alpha = 
  0.636492914117025     
 delta_qm =   0.309104E-05 delta_en =   0.165103E-04 tol =   0.100000E-04
 Iteration #         12
  pAp =   7.168813886608838E-008  rzold =   2.901391324097666E-008  alpha = 
  0.404724040823181     
 delta_qm =   0.217344E-05 delta_en =   0.816280E-05 tol =   0.100000E-04
 Charges are converged, EXIT

%%%% DENSITY %%%%%%%%%%%%%%%%%%%%%%%%%%%%%%%%%%%%%%%%%%%%%%%%%%%%%%%%%%%%%%%%%%%
 density label              = velectrostatic                                                                  
 integral of density        =     -39.42205125    

%%%% CHARGES %%%%%%%%%%%%%%%%%%%%%%%%%%%%%%%%%%%%%%%%%%%%%%%%%%%%%%%%%%%%%%%%%%%
 total number of charges    =         11
 total charge               =     -0.0000000

%%%% DENSITY %%%%%%%%%%%%%%%%%%%%%%%%%%%%%%%%%%%%%%%%%%%%%%%%%%%%%%%%%%%%%%%%%%%
 density label              = vsoftcavity                                                                     
 integral of density        =      15.78760502    

%%%% ELECTRONS %%%%%%%%%%%%%%%%%%%%%%%%%%%%%%%%%%%%%%%%%%%%%%%%%%%%%%%%%%%%%%%%%
 number of electrons        =          8
 total electronic charge    =      8.0000000

%%%% BOUNDARY %%%%%%%%%%%%%%%%%%%%%%%%%%%%%%%%%%%%%%%%%%%%%%%%%%%%%%%%%%%%%%%%%%
 boundary label             = solvent              
 boundary mode              = electronic           
 boundary is built as a function of a smooth density
 function type              =  2 
 using the modified SCCS function with parameters 
 rhomax                     =      0.0050000 
 rhomin                     =      0.0001000 
 volume of the QM region    =    334.0721521 
 surface of the QM region   =    232.5321457 

%%%% DIELECTRIC %%%%%%%%%%%%%%%%%%%%%%%%%%%%%%%%%%%%%%%%%%%%%%%%%%%%%%%%%%%%%%%%%
 dielectric build on homogeneous background
 environment bulk permitt.  =    100.0000000 
 dielectric flags
 need gradient              =  F 
 need factor depend. sqrt   =  T 
 total dielectric charge    =      0.0001153

%%%% DENSITY %%%%%%%%%%%%%%%%%%%%%%%%%%%%%%%%%%%%%%%%%%%%%%%%%%%%%%%%%%%%%%%%%%%
 density label              = vreference                                                                      
 integral of density        =    -0.1432704161E-10

%%%% COMPUTE ELECTROSTATIC POTENTIAL %%%%%%%%%%%%%%%%%%%%%%%%%%%%%%%%%%%%%%%%%%%
 Warning: bad guess with residual norm =   0.560453E+03, reset to no guess
 Iteration #          1
  pAp =    29.3342966180980       rzold =    28.5302578558998       alpha = 
  0.972590487760251     
 delta_qm =   0.175507E-01 delta_en =   0.532271E+03 tol =   0.100000E-04
 Iteration #          2
  pAp =    151.851405910700       rzold =    9.61213556809872       alpha = 
  6.329961524196495E-002
 delta_qm =   0.618440E-02 delta_en =   0.660904E+02 tol =   0.100000E-04
 Iteration #          3
  pAp =    3.79095476279157       rzold =   0.579422343829430       alpha = 
  0.152843381175764     
 delta_qm =   0.120988E-02 delta_en =   0.252948E+01 tol =   0.100000E-04
 Iteration #          4
  pAp =   5.127603790223743E-002  rzold =   1.268477321523779E-002  alpha = 
  0.247382085944755     
 delta_qm =   0.540100E-03 delta_en =   0.504071E+00 tol =   0.100000E-04
 Iteration #          5
  pAp =   1.049415439441303E-003  rzold =   6.451576421582377E-004  alpha = 
  0.614778111613940     
 delta_qm =   0.138111E-03 delta_en =   0.329612E-01 tol =   0.100000E-04
 Iteration #          6
  pAp =   2.070667681980801E-004  rzold =   7.100810386886590E-005  alpha = 
  0.342923707588557     
 delta_qm =   0.888616E-04 delta_en =   0.136450E-01 tol =   0.100000E-04
 Iteration #          7
  pAp =   8.166894550331568E-006  rzold =   4.532079968530454E-006  alpha = 
  0.554933082654588     
 delta_qm =   0.630281E-04 delta_en =   0.686455E-02 tol =   0.100000E-04
 Iteration #          8
  pAp =   3.903069918899875E-006  rzold =   2.640114075994763E-006  alpha = 
  0.676419877392027     
 delta_qm =   0.346023E-04 delta_en =   0.206896E-02 tol =   0.100000E-04
 Iteration #          9
  pAp =   4.632230991720943E-006  rzold =   1.650148000381444E-006  alpha = 
  0.356231803493977     
 delta_qm =   0.268729E-04 delta_en =   0.124788E-02 tol =   0.100000E-04
 Iteration #         10
  pAp =   2.632604260815291E-006  rzold =   1.070672643507056E-006  alpha = 
  0.406697147552089     
 delta_qm =   0.187383E-04 delta_en =   0.606741E-03 tol =   0.100000E-04
 Iteration #         11
  pAp =   3.400543870191553E-007  rzold =   2.260893998822408E-007  alpha = 
  0.664862470571524     
 delta_qm =   0.905740E-05 delta_en =   0.141759E-03 tol =   0.100000E-04
 Iteration #         12
  pAp =   6.234700552876012E-007  rzold =   1.516811518907772E-007  alpha = 
  0.243285384124516     
 delta_qm =   0.609179E-05 delta_en =   0.641258E-04 tol =   0.100000E-04
 Iteration #         13
  pAp =   2.886932111384968E-008  rzold =   2.800717106461815E-008  alpha = 
  0.970136116265722     
 delta_qm =   0.317263E-05 delta_en =   0.173933E-04 tol =   0.100000E-04
 Iteration #         14
  pAp =   2.889700586293097E-008  rzold =   1.916806552293498E-008  alpha = 
  0.663323584936658     
 delta_qm =   0.174823E-05 delta_en =   0.528129E-05 tol =   0.100000E-04
 Charges are converged, EXIT

%%%% DENSITY %%%%%%%%%%%%%%%%%%%%%%%%%%%%%%%%%%%%%%%%%%%%%%%%%%%%%%%%%%%%%%%%%%%
 density label              = velectrostatic                                                                  
 integral of density        =     -43.62472628    

%%%% CHARGES %%%%%%%%%%%%%%%%%%%%%%%%%%%%%%%%%%%%%%%%%%%%%%%%%%%%%%%%%%%%%%%%%%%
 total number of charges    =         11
 total charge               =      0.0000000

%%%% DENSITY %%%%%%%%%%%%%%%%%%%%%%%%%%%%%%%%%%%%%%%%%%%%%%%%%%%%%%%%%%%%%%%%%%%
 density label              = vsoftcavity                                                                     
 integral of density        =      11.36508053    

%%%% ELECTRONS %%%%%%%%%%%%%%%%%%%%%%%%%%%%%%%%%%%%%%%%%%%%%%%%%%%%%%%%%%%%%%%%%
 number of electrons        =          8
 total electronic charge    =      8.0000000

%%%% BOUNDARY %%%%%%%%%%%%%%%%%%%%%%%%%%%%%%%%%%%%%%%%%%%%%%%%%%%%%%%%%%%%%%%%%%
 boundary label             = solvent              
 boundary mode              = electronic           
 boundary is built as a function of a smooth density
 function type              =  2 
 using the modified SCCS function with parameters 
 rhomax                     =      0.0050000 
 rhomin                     =      0.0001000 
 volume of the QM region    =    299.6988322 
 surface of the QM region   =    216.3691669 

%%%% DIELECTRIC %%%%%%%%%%%%%%%%%%%%%%%%%%%%%%%%%%%%%%%%%%%%%%%%%%%%%%%%%%%%%%%%%
 dielectric build on homogeneous background
 environment bulk permitt.  =    100.0000000 
 dielectric flags
 need gradient              =  F 
 need factor depend. sqrt   =  T 
 total dielectric charge    =      0.0001336

%%%% DENSITY %%%%%%%%%%%%%%%%%%%%%%%%%%%%%%%%%%%%%%%%%%%%%%%%%%%%%%%%%%%%%%%%%%%
 density label              = vreference                                                                      
 integral of density        =    -0.1463560137E-10

%%%% COMPUTE ELECTROSTATIC POTENTIAL %%%%%%%%%%%%%%%%%%%%%%%%%%%%%%%%%%%%%%%%%%%
 Warning: bad guess with residual norm =   0.303769E+03, reset to no guess
 Iteration #          1
  pAp =    28.9821659937588       rzold =    28.4061259994953       alpha = 
  0.980124329065414     
 delta_qm =   0.130199E-01 delta_en =   0.292926E+03 tol =   0.100000E-04
 Iteration #          2
  pAp =    82.2767710344272       rzold =    5.55503325568195       alpha = 
  6.751642275020182E-002
 delta_qm =   0.575491E-02 delta_en =   0.572297E+02 tol =   0.100000E-04
 Iteration #          3
  pAp =    8.15528303012799       rzold =   0.953277376661778       alpha = 
  0.116890777811155     
 delta_qm =   0.113554E-02 delta_en =   0.222819E+01 tol =   0.100000E-04
 Iteration #          4
  pAp =   8.731899894486998E-002  rzold =   1.915216542605845E-002  alpha = 
  0.219335604593342     
 delta_qm =   0.495784E-03 delta_en =   0.424746E+00 tol =   0.100000E-04
 Iteration #          5
  pAp =   1.295052693632259E-003  rzold =   7.518090766688632E-004  alpha = 
  0.580523927995740     
 delta_qm =   0.150020E-03 delta_en =   0.388906E-01 tol =   0.100000E-04
 Iteration #          6
  pAp =   5.182499877398738E-004  rzold =   1.652114147203826E-004  alpha = 
  0.318787107822003     
 delta_qm =   0.900601E-04 delta_en =   0.140155E-01 tol =   0.100000E-04
 Iteration #          7
  pAp =   2.100619325728612E-005  rzold =   8.973961574006379E-006  alpha = 
  0.427205513349912     
 delta_qm =   0.683702E-04 delta_en =   0.807752E-02 tol =   0.100000E-04
 Iteration #          8
  pAp =   5.096804540219902E-006  rzold =   3.798673946657118E-006  alpha = 
  0.745305007614285     
 delta_qm =   0.307934E-04 delta_en =   0.163855E-02 tol =   0.100000E-04
 Iteration #          9
  pAp =   1.038071206642255E-005  rzold =   2.986123857710150E-006  alpha = 
  0.287660792304322     
 delta_qm =   0.205186E-04 delta_en =   0.727509E-03 tol =   0.100000E-04
 Iteration #         10
  pAp =   4.611158136453371E-006  rzold =   1.666985243992409E-006  alpha = 
  0.361511185403534     
 delta_qm =   0.135154E-04 delta_en =   0.315649E-03 tol =   0.100000E-04
 Iteration #         11
  pAp =   2.815230751607351E-007  rzold =   2.087316973412486E-007  alpha = 
  0.741437259528632     
 delta_qm =   0.556706E-05 delta_en =   0.535544E-04 tol =   0.100000E-04
 Iteration #         12
  pAp =   3.921876489467485E-007  rzold =   8.882349817965630E-008  alpha = 
  0.226482140419768     
 delta_qm =   0.418988E-05 delta_en =   0.303352E-04 tol =   0.100000E-04
 Iteration #         13
  pAp =   4.472011963887571E-008  rzold =   2.228293754477196E-008  alpha = 
  0.498275445698968     
 delta_qm =   0.302199E-05 delta_en =   0.157808E-04 tol =   0.100000E-04
 Iteration #         14
  pAp =   1.003775948351762E-008  rzold =   1.122585877150080E-008  alpha = 
   1.11836299623777     
 delta_qm =   0.169509E-05 delta_en =   0.496514E-05 tol =   0.100000E-04
 Charges are converged, EXIT

%%%% DENSITY %%%%%%%%%%%%%%%%%%%%%%%%%%%%%%%%%%%%%%%%%%%%%%%%%%%%%%%%%%%%%%%%%%%
 density label              = velectrostatic                                                                  
 integral of density        =     -38.90032805    

%%%% CHARGES %%%%%%%%%%%%%%%%%%%%%%%%%%%%%%%%%%%%%%%%%%%%%%%%%%%%%%%%%%%%%%%%%%%
 total number of charges    =         11
 total charge               =      0.0000000

%%%% DENSITY %%%%%%%%%%%%%%%%%%%%%%%%%%%%%%%%%%%%%%%%%%%%%%%%%%%%%%%%%%%%%%%%%%%
 density label              = vsoftcavity                                                                     
 integral of density        =      11.34983520    

%%%% ELECTRONS %%%%%%%%%%%%%%%%%%%%%%%%%%%%%%%%%%%%%%%%%%%%%%%%%%%%%%%%%%%%%%%%%
 number of electrons        =          8
 total electronic charge    =      8.0000000

%%%% BOUNDARY %%%%%%%%%%%%%%%%%%%%%%%%%%%%%%%%%%%%%%%%%%%%%%%%%%%%%%%%%%%%%%%%%%
 boundary label             = solvent              
 boundary mode              = electronic           
 boundary is built as a function of a smooth density
 function type              =  2 
 using the modified SCCS function with parameters 
 rhomax                     =      0.0050000 
 rhomin                     =      0.0001000 
 volume of the QM region    =    299.6988322 
 surface of the QM region   =    216.3691669 

%%%% DIELECTRIC %%%%%%%%%%%%%%%%%%%%%%%%%%%%%%%%%%%%%%%%%%%%%%%%%%%%%%%%%%%%%%%%%
 dielectric build on homogeneous background
 environment bulk permitt.  =    100.0000000 
 dielectric flags
 need gradient              =  F 
 need factor depend. sqrt   =  T 
 total dielectric charge    =      0.0000632

%%%% DENSITY %%%%%%%%%%%%%%%%%%%%%%%%%%%%%%%%%%%%%%%%%%%%%%%%%%%%%%%%%%%%%%%%%%%
 density label              = vreference                                                                      
 integral of density        =    -0.1463560137E-10

%%%% DENSITY %%%%%%%%%%%%%%%%%%%%%%%%%%%%%%%%%%%%%%%%%%%%%%%%%%%%%%%%%%%%%%%%%%%
 density label              = velectrostatic                                                                  
 integral of density        =     -38.90032805    

%%%% CHARGES %%%%%%%%%%%%%%%%%%%%%%%%%%%%%%%%%%%%%%%%%%%%%%%%%%%%%%%%%%%%%%%%%%%
 total number of charges    =         11
 total charge               =      0.0000000

%%%% DENSITY %%%%%%%%%%%%%%%%%%%%%%%%%%%%%%%%%%%%%%%%%%%%%%%%%%%%%%%%%%%%%%%%%%%
 density label              = vsoftcavity                                                                     
 integral of density        =      11.34983520    
