
     Program PWSCF v.6.7MaX starts on  4Mar2021 at 15:47:20 

     This program is part of the open-source Quantum ESPRESSO suite
     for quantum simulation of materials; please cite
         "P. Giannozzi et al., J. Phys.:Condens. Matter 21 395502 (2009);
         "P. Giannozzi et al., J. Phys.:Condens. Matter 29 465901 (2017);
          URL http://www.quantum-espresso.org", 
     in publications or presentations arising from this work. More details at
     http://www.quantum-espresso.org/quote

     Parallel version (MPI), running on     1 processors

     MPI processes distributed on     1 nodes
     Waiting for input...
     Reading input from standard input

     Current dimensions of program PWSCF are:
     Max number of different atomic species (ntypx) = 10
     Max number of k-points (npk) =  40000
     Max angular momentum in pseudopotentials (lmaxx) =  3
     file C.pbe-rrkjus.UPF: wavefunction(s)  2S 2P renormalized
     file H.pbe-rrkjus.UPF: wavefunction(s)  1S renormalized
     file N.pbe-rrkjus.UPF: wavefunction(s)  2S renormalized
     file O.pbe-rrkjus.UPF: wavefunction(s)  2S renormalized

     gamma-point specific algorithms are used

     Subspace diagonalization in iterative solution of the eigenvalue problem:
     a serial algorithm will be used


     G-vector sticks info
     --------------------
     sticks:   dense  smooth     PW     G-vecs:    dense   smooth      PW
     Sum        2385     949    241                87655    22119    2777



     bravais-lattice index     =            1
     lattice parameter (alat)  =      10.0000  a.u.
     unit-cell volume          =    1000.0000 (a.u.)^3
     number of atoms/cell      =           10
     number of atomic types    =            4
     number of electrons       =        24.00
     number of Kohn-Sham states=           12
     kinetic-energy cutoff     =      30.0000  Ry
     charge density cutoff     =     300.0000  Ry
     scf convergence threshold =      5.0E-03
     mixing beta               =       0.7000
     number of iterations used =            8  plain     mixing
     Exchange-correlation= SLA  PW   PBE  PBE
                           (   1   4   3   4   0   0   0)


     Environ Module
     ==============

     Plese cite
         O. Andreussi, I. Dabo and N. Marzari, J. Chem. Phys. 136, 064102 (2012)         
     in publications or presentations arising from this work.

     compensation onset threshold      =               0.1000E+03 
     static permittivity               =                   100.00 
     epsilon calculation mode          =               electronic 

     Electrostatic Setup
     -------------------
     electrostatic problem to solve    = generalized              
     numerical solver adopted          = cg                       
     type of auxiliary density adopted = none                     
     type of core tool for poisson     = fft                      


     Assuming isolated system, Martyna-Tuckerman method


     celldm(1)=  10.000000  celldm(2)=   0.000000  celldm(3)=   0.000000
     celldm(4)=   0.000000  celldm(5)=   0.000000  celldm(6)=   0.000000

     crystal axes: (cart. coord. in units of alat)
               a(1) = (   1.000000   0.000000   0.000000 )  
               a(2) = (   0.000000   1.000000   0.000000 )  
               a(3) = (   0.000000   0.000000   1.000000 )  

     reciprocal axes: (cart. coord. in units 2 pi/alat)
               b(1) = (  1.000000  0.000000  0.000000 )  
               b(2) = (  0.000000  1.000000  0.000000 )  
               b(3) = (  0.000000  0.000000  1.000000 )  


     PseudoPot. # 1 for C  read from file:
     ../../../pseudo/C.pbe-rrkjus.UPF
     MD5 check sum: c9ac5a99bc85b198593446162950cd17
     Pseudo is Ultrasoft, Zval =  4.0
     Generated by new atomic code, or converted to UPF format
     Using radial grid of  627 points,  4 beta functions with: 
                l(1) =   0
                l(2) =   0
                l(3) =   1
                l(4) =   1
     Q(r) pseudized with 0 coefficients 


     PseudoPot. # 2 for H  read from file:
     ../../../pseudo/H.pbe-rrkjus.UPF
     MD5 check sum: 2d52a7f45632fd764c17cc6affed14c8
     Pseudo is Ultrasoft, Zval =  1.0
     Generated by new atomic code, or converted to UPF format
     Using radial grid of 1061 points,  2 beta functions with: 
                l(1) =   0
                l(2) =   0
     Q(r) pseudized with 0 coefficients 


     PseudoPot. # 3 for N  read from file:
     ../../../pseudo/N.pbe-rrkjus.UPF
     MD5 check sum: 28c76d763763edb36c62a6ca2be9aebd
     Pseudo is Ultrasoft, Zval =  5.0
     Generated by new atomic code, or converted to UPF format
     Using radial grid of 1257 points,  4 beta functions with: 
                l(1) =   0
                l(2) =   0
                l(3) =   1
                l(4) =   1
     Q(r) pseudized with 0 coefficients 


     PseudoPot. # 4 for O  read from file:
     ../../../pseudo/O.pbe-rrkjus.UPF
     MD5 check sum: fadcf19ee70a498d3030e2e79cf929a4
     Pseudo is Ultrasoft, Zval =  6.0
     Generated by new atomic code, or converted to UPF format
     Using radial grid of 1269 points,  4 beta functions with: 
                l(1) =   0
                l(2) =   0
                l(3) =   1
                l(4) =   1
     Q(r) pseudized with 0 coefficients 


     atomic species   valence    mass     pseudopotential
        C              4.00    12.00000     C ( 1.00)
        H              1.00     1.00000     H ( 1.00)
        N              5.00    14.00000     N ( 1.00)
        O              6.00    16.00000     O ( 1.00)

     No symmetry found



   Cartesian axes

     site n.     atom                  positions (alat units)
         1           C   tau(   1) = (   0.0000000   0.0000000   0.0000000  )
         2           C   tau(   2) = (   0.0000000   0.0000000   0.2910178  )
         3           N   tau(   3) = (   0.2341938   0.0000000  -0.1090048  )
         4           H   tau(   4) = (   0.0953235  -0.1650932   0.3584180  )
         5           H   tau(   5) = (  -0.1906366  -0.0000060   0.3584181  )
         6           H   tau(   6) = (   0.0953131   0.1650992   0.3584180  )
         7           O   tau(   7) = (  -0.1968004  -0.0000037  -0.1282619  )
         8           H   tau(   8) = (   0.2526261  -0.0000030  -0.2951095  )
         9           H   tau(   9) = (   0.3889291   0.0000268  -0.0051433  )
        10           H   tau(  10) = (  -0.1540732  -0.0000089  -0.3045722  )

     number of k points=     1
                       cart. coord. in units 2pi/alat
        k(    1) = (   0.0000000   0.0000000   0.0000000), wk =   2.0000000

     Dense  grid:    43828 G-vectors     FFT dimensions: (  60,  60,  60)

     Smooth grid:    11060 G-vectors     FFT dimensions: (  36,  36,  36)

     Estimated max dynamical RAM per process >      79.39 MB

     Initial potential from superposition of free atoms

     starting charge   24.42266, renormalised to   24.00000
     Starting wfcs are   22 randomized atomic wfcs

     total cpu time spent up to now is        8.4 secs

     Self-consistent Calculation

     iteration #  1     ecut=    30.00 Ry     beta= 0.70
     Davidson diagonalization with overlap
     ethr =  1.00E-02,  avg # of iterations =  3.0

     add environment contribution to local potential
     polarization accuracy = 6.3E-06, # of iterations =  28

     total cpu time spent up to now is       27.2 secs

     total energy              =     -80.51209339 Ry
     estimated scf accuracy    <       2.73212072 Ry
     electrostatic embedding   =       0.00000000 Ry
     correction to one-el term =      -0.00000000 Ry

     iteration #  2     ecut=    30.00 Ry     beta= 0.70
     Davidson diagonalization with overlap
     ethr =  1.00E-02,  avg # of iterations =  3.0

     add environment contribution to local potential
     polarization accuracy = 7.3E-06, # of iterations =  24

     total cpu time spent up to now is       44.4 secs

     total energy              =     -81.20057943 Ry
     estimated scf accuracy    <       0.37782350 Ry
     electrostatic embedding   =      -0.13213521 Ry
     correction to one-el term =      -7.37928930 Ry

     iteration #  3     ecut=    30.00 Ry     beta= 0.70
     Davidson diagonalization with overlap
     ethr =  1.57E-03,  avg # of iterations =  2.0

     add environment contribution to local potential
     polarization accuracy = 8.9E-06, # of iterations =  30

     total cpu time spent up to now is       64.8 secs

     total energy              =     -81.25374107 Ry
     estimated scf accuracy    <       0.02644401 Ry
     electrostatic embedding   =      -0.11452145 Ry
     correction to one-el term =      -7.76757937 Ry

     iteration #  4     ecut=    30.00 Ry     beta= 0.70
     Davidson diagonalization with overlap
     ethr =  1.10E-04,  avg # of iterations =  5.0

     add environment contribution to local potential
     polarization accuracy = 6.5E-06, # of iterations =  27

     total cpu time spent up to now is       83.4 secs

     total energy              =     -81.26917723 Ry
     estimated scf accuracy    <       0.00746179 Ry
     electrostatic embedding   =      -0.10093540 Ry
     correction to one-el term =      -7.79643146 Ry

     iteration #  5     ecut=    30.00 Ry     beta= 0.70
     Davidson diagonalization with overlap
     ethr =  3.11E-05,  avg # of iterations =  5.0

     add environment contribution to local potential
     polarization accuracy = 7.1E-06, # of iterations =  28

     total cpu time spent up to now is      102.7 secs

     total energy              =     -81.27337717 Ry
     estimated scf accuracy    <       0.01044763 Ry
     electrostatic embedding   =      -0.10328349 Ry
     correction to one-el term =      -7.83879647 Ry

     iteration #  6     ecut=    30.00 Ry     beta= 0.70
     Davidson diagonalization with overlap
     ethr =  3.11E-05,  avg # of iterations =  4.0

     the potential shift due to the Gaussian-smeared nuclei is    -0.0198 ev

     total cpu time spent up to now is      105.3 secs

     End of self-consistent calculation

          k = 0.0000 0.0000 0.0000 (  1389 PWs)   bands (ev):

   -29.1893 -23.0828 -18.5889 -16.5430 -14.7959 -13.7319 -11.8578 -10.6558
    -9.7864  -9.5641  -8.9449  -7.2522

     highest occupied level (ev):    -7.2522

!    total energy              =     -81.27144962 Ry
     estimated scf accuracy    <       0.00321757 Ry

     The total energy is the sum of the following terms:
     one-electron contribution =    -412.42923451 Ry
     hartree contribution      =     208.35180565 Ry
     xc contribution           =     -23.01685942 Ry
     ewald contribution        =     153.74645456 Ry
     electrostatic embedding   =      -0.10211737 Ry
     correction to one-el term =      -7.82149853 Ry

     convergence has been achieved in   6 iterations
 forces lc
       1   -0.0073   -0.0251    0.0063
       2    0.0012    0.0403    0.0043
       3  673.8157  449.0075 -359.8050
       4   -2.8939  -40.7794   66.9447
       5  -47.6704    1.5275   -1.6944
       6    1.4355   11.3052  -39.1375
       7********** 5946.4172**********
       8   32.6296    0.1952   22.1557
       9  -17.8243    3.6603    8.5774
      10   11.3616   -0.5477   -1.3483
 forces mt   2.0000000000000000     
       1   -0.0002   -0.0000   -0.0007
       2   -0.0001   -0.0000    0.0009
       3    0.0006    0.0000   -0.0004
       4    0.0000   -0.0004    0.0003
       5   -0.0004   -0.0000    0.0004
       6    0.0000    0.0004    0.0003
       7   -0.0022   -0.0000   -0.0007
       8    0.0002   -0.0000   -0.0000
       9    0.0005    0.0000   -0.0002
      10   -0.0004   -0.0000   -0.0001

     Forces acting on atoms (cartesian axes, Ry/au):

     atom    1 type  1   force = ************** -637.10512356**************
     atom    2 type  1   force = ************** -637.03964790**************
     atom    3 type  3   force = ************** -188.07263997**************
     atom    4 type  2   force = ************** -677.87918612**************
     atom    5 type  2   force = ************** -635.55259095**************
     atom    6 type  2   force = ************** -625.75519887**************
     atom    7 type  4   force = ************** 5309.33713292**************
     atom    8 type  2   force = ************** -636.88501745**************
     atom    9 type  2   force = ************** -633.41987459**************
     atom   10 type  2   force = ************** -637.62785351**************

     Total force = ************     Total SCF correction =     0.084132

     Writing output data file ./tmp/pwscf.save/

     init_run     :      7.71s CPU      8.30s WALL (       1 calls)
     electrons    :     92.21s CPU     96.92s WALL (       1 calls)
     forces       :      1.54s CPU      1.63s WALL (       1 calls)

     Called by init_run:
     wfcinit      :      0.01s CPU      0.01s WALL (       1 calls)
     potinit      :      2.25s CPU      2.42s WALL (       1 calls)
     hinit0       :      4.41s CPU      4.55s WALL (       1 calls)

     Called by electrons:
     c_bands      :      0.14s CPU      0.19s WALL (       6 calls)
     sum_band     :      0.66s CPU      0.42s WALL (       6 calls)
     v_of_rho     :      0.48s CPU      0.56s WALL (       7 calls)
     newd         :      0.24s CPU      0.32s WALL (       7 calls)
     mix_rho      :      0.03s CPU      0.04s WALL (       6 calls)

     Called by c_bands:
     init_us_2    :      0.01s CPU      0.01s WALL (      13 calls)
     regterg      :      0.14s CPU      0.18s WALL (       6 calls)

     Called by *egterg:
     rdiaghg      :      0.00s CPU      0.00s WALL (      28 calls)
     h_psi        :      0.11s CPU      0.16s WALL (      29 calls)
     s_psi        :      0.01s CPU      0.00s WALL (      29 calls)
     g_psi        :      0.00s CPU      0.00s WALL (      22 calls)

     Called by h_psi:
     h_psi:calbec :      0.00s CPU      0.00s WALL (      29 calls)
     vloc_psi     :      0.10s CPU      0.10s WALL (      29 calls)
     add_vuspsi   :      0.01s CPU      0.05s WALL (      29 calls)

     General routines
     calbec       :      0.00s CPU      0.00s WALL (      39 calls)
     fft          :     58.84s CPU     60.83s WALL (     465 calls)
     ffts         :      0.01s CPU      0.01s WALL (      13 calls)
     fftw         :      0.09s CPU      0.09s WALL (     306 calls)
     interpolate  :      0.03s CPU      0.05s WALL (       7 calls)

     Parallel routines
     fft_scatt_xy :      6.25s CPU      6.26s WALL (     383 calls)
     fft_scatt_yz :      8.46s CPU      8.47s WALL (     383 calls)

     Environ routines
     calc_eelect  :      0.04s CPU      0.04s WALL (      12 calls)
     calc_velect  :     68.68s CPU     71.55s WALL (      10 calls)
     dielectric   :      1.12s CPU      1.31s WALL (       8 calls)
     calc_felect  :      1.42s CPU      1.50s WALL (       1 calls)

     PWSCF        :   1m41.55s CPU   1m47.04s WALL


   This run was terminated on:  15:49: 7   4Mar2021            

=------------------------------------------------------------------------------=
   JOB DONE.
=------------------------------------------------------------------------------=
