
     Program PWSCF v.6.7MaX starts on 22Jan2021 at 11:30:42 

     This program is part of the open-source Quantum ESPRESSO suite
     for quantum simulation of materials; please cite
         "P. Giannozzi et al., J. Phys.:Condens. Matter 21 395502 (2009);
         "P. Giannozzi et al., J. Phys.:Condens. Matter 29 465901 (2017);
          URL http://www.quantum-espresso.org", 
     in publications or presentations arising from this work. More details at
     http://www.quantum-espresso.org/quote

     Parallel version (MPI), running on     1 processors

     MPI processes distributed on     1 nodes
     Reading input from isolated.in

     Current dimensions of program PWSCF are:
     Max number of different atomic species (ntypx) = 10
     Max number of k-points (npk) =  40000
     Max angular momentum in pseudopotentials (lmaxx) =  3
     file C.pbe-rrkjus.UPF: wavefunction(s)  2S 2P renormalized
     file H.pbe-rrkjus.UPF: wavefunction(s)  1S renormalized
     file N.pbe-rrkjus.UPF: wavefunction(s)  2S renormalized
     file O.pbe-rrkjus.UPF: wavefunction(s)  2S renormalized

     gamma-point specific algorithms are used

     Subspace diagonalization in iterative solution of the eigenvalue problem:
     a serial algorithm will be used


     G-vector sticks info
     --------------------
     sticks:   dense  smooth     PW     G-vecs:    dense   smooth      PW
     Sum        9549    3809    949               701475   177509   22119



     bravais-lattice index     =            1
     lattice parameter (alat)  =      20.0000  a.u.
     unit-cell volume          =    8000.0000 (a.u.)^3
     number of atoms/cell      =           10
     number of atomic types    =            4
     number of electrons       =        24.00
     number of Kohn-Sham states=           12
     kinetic-energy cutoff     =      30.0000  Ry
     charge density cutoff     =     300.0000  Ry
     scf convergence threshold =      5.0E-06
     mixing beta               =       0.7000
     number of iterations used =            8  plain     mixing
     Exchange-correlation= SLA  PW   PBE  PBE
                           (   1   4   3   4   0   0   0)


     Environ Module
     ==============

     Plese cite
         O. Andreussi, I. Dabo and N. Marzari, J. Chem. Phys. 136, 064102 (2012)         
     in publications or presentations arising from this work.

     compensation onset threshold      =               0.1000E+03 
     static permittivity               =                   100.00 
     epsilon calculation mode          =                     full 

     Electrostatic Setup
     -------------------
     electrostatic problem to solve    = generalized              
     numerical solver adopted          = cg                       
     type of auxiliary density adopted = none                     
     type of core tool for poisson     = fft                      


     Assuming isolated system, Martyna-Tuckerman method


     celldm(1)=  20.000000  celldm(2)=   0.000000  celldm(3)=   0.000000
     celldm(4)=   0.000000  celldm(5)=   0.000000  celldm(6)=   0.000000

     crystal axes: (cart. coord. in units of alat)
               a(1) = (   1.000000   0.000000   0.000000 )  
               a(2) = (   0.000000   1.000000   0.000000 )  
               a(3) = (   0.000000   0.000000   1.000000 )  

     reciprocal axes: (cart. coord. in units 2 pi/alat)
               b(1) = (  1.000000  0.000000  0.000000 )  
               b(2) = (  0.000000  1.000000  0.000000 )  
               b(3) = (  0.000000  0.000000  1.000000 )  


     PseudoPot. # 1 for C  read from file:
     /Users/gabrielmedrano/Desktop/q-e/Environ/tests/../..//pseudo/C.pbe-rrkjus.UPF
     MD5 check sum: c9ac5a99bc85b198593446162950cd17
     Pseudo is Ultrasoft, Zval =  4.0
     Generated by new atomic code, or converted to UPF format
     Using radial grid of  627 points,  4 beta functions with: 
                l(1) =   0
                l(2) =   0
                l(3) =   1
                l(4) =   1
     Q(r) pseudized with 0 coefficients 


     PseudoPot. # 2 for H  read from file:
     /Users/gabrielmedrano/Desktop/q-e/Environ/tests/../..//pseudo/H.pbe-rrkjus.UPF
     MD5 check sum: 2d52a7f45632fd764c17cc6affed14c8
     Pseudo is Ultrasoft, Zval =  1.0
     Generated by new atomic code, or converted to UPF format
     Using radial grid of 1061 points,  2 beta functions with: 
                l(1) =   0
                l(2) =   0
     Q(r) pseudized with 0 coefficients 


     PseudoPot. # 3 for N  read from file:
     /Users/gabrielmedrano/Desktop/q-e/Environ/tests/../..//pseudo/N.pbe-rrkjus.UPF
     MD5 check sum: 28c76d763763edb36c62a6ca2be9aebd
     Pseudo is Ultrasoft, Zval =  5.0
     Generated by new atomic code, or converted to UPF format
     Using radial grid of 1257 points,  4 beta functions with: 
                l(1) =   0
                l(2) =   0
                l(3) =   1
                l(4) =   1
     Q(r) pseudized with 0 coefficients 


     PseudoPot. # 4 for O  read from file:
     /Users/gabrielmedrano/Desktop/q-e/Environ/tests/../..//pseudo/O.pbe-rrkjus.UPF
     MD5 check sum: fadcf19ee70a498d3030e2e79cf929a4
     Pseudo is Ultrasoft, Zval =  6.0
     Generated by new atomic code, or converted to UPF format
     Using radial grid of 1269 points,  4 beta functions with: 
                l(1) =   0
                l(2) =   0
                l(3) =   1
                l(4) =   1
     Q(r) pseudized with 0 coefficients 


     atomic species   valence    mass     pseudopotential
        C              4.00    12.00000     C ( 1.00)
        H              1.00     1.00000     H ( 1.00)
        N              5.00    14.00000     N ( 1.00)
        O              6.00    16.00000     O ( 1.00)

     No symmetry found



   Cartesian axes

     site n.     atom                  positions (alat units)
         1           C   tau(   1) = (   0.0000000   0.0000000   0.0000000  )
         2           C   tau(   2) = (   0.0000000   0.0000000   0.1455089  )
         3           N   tau(   3) = (   0.1170969   0.0000000  -0.0545024  )
         4           H   tau(   4) = (   0.0476617  -0.0825466   0.1792090  )
         5           H   tau(   5) = (  -0.0953183  -0.0000030   0.1792090  )
         6           H   tau(   6) = (   0.0476566   0.0825496   0.1792090  )
         7           O   tau(   7) = (  -0.0984002  -0.0000019  -0.0641310  )
         8           H   tau(   8) = (   0.1263131  -0.0000015  -0.1475548  )
         9           H   tau(   9) = (   0.1944645   0.0000134  -0.0025716  )
        10           H   tau(  10) = (  -0.0770366  -0.0000045  -0.1522861  )

     number of k points=     1
                       cart. coord. in units 2pi/alat
        k(    1) = (   0.0000000   0.0000000   0.0000000), wk =   2.0000000

     Dense  grid:   350738 G-vectors     FFT dimensions: ( 120, 120, 120)

     Smooth grid:    88755 G-vectors     FFT dimensions: (  72,  72,  72)

     Estimated max dynamical RAM per process >     624.11 MB

     Initial potential from superposition of free atoms

     starting charge   24.42266, renormalised to   24.00000

     negative rho (up, down):  4.438E-04 0.000E+00
     Starting wfcs are   22 randomized atomic wfcs

     total cpu time spent up to now is        9.0 secs

     Self-consistent Calculation

     iteration #  1     ecut=    30.00 Ry     beta= 0.70
     Davidson diagonalization with overlap
     ethr =  1.00E-02,  avg # of iterations =  3.0

     negative rho (up, down):  8.103E-05 0.000E+00

     add environment contribution to local potential
     polarization accuracy = 7.1E-06, # of iterations =  18

     total cpu time spent up to now is       16.9 secs

     total energy              =     -80.20753153 Ry
     estimated scf accuracy    <       3.49736245 Ry
     electrostatic embedding   =       0.00000000 Ry
     correction to one-el term =      -0.00000000 Ry

     iteration #  2     ecut=    30.00 Ry     beta= 0.70
     Davidson diagonalization with overlap
     ethr =  1.00E-02,  avg # of iterations =  3.0

     negative rho (up, down):  1.778E-04 0.000E+00

     add environment contribution to local potential
     polarization accuracy = 9.0E-06, # of iterations =  22

     total cpu time spent up to now is       25.5 secs

     total energy              =     -81.34184643 Ry
     estimated scf accuracy    <       0.50336030 Ry
     electrostatic embedding   =      -0.21882047 Ry
     correction to one-el term =     -11.92690386 Ry

     iteration #  3     ecut=    30.00 Ry     beta= 0.70
     Davidson diagonalization with overlap
     ethr =  2.10E-03,  avg # of iterations =  2.0

     negative rho (up, down):  1.320E-04 0.000E+00

     add environment contribution to local potential
     polarization accuracy = 4.4E-06, # of iterations =  27

     total cpu time spent up to now is       34.8 secs

     total energy              =     -81.33651783 Ry
     estimated scf accuracy    <       0.05479241 Ry
     electrostatic embedding   =      -0.26593471 Ry
     correction to one-el term =     -10.85932835 Ry

     iteration #  4     ecut=    30.00 Ry     beta= 0.70
     Davidson diagonalization with overlap
     ethr =  2.28E-04,  avg # of iterations =  3.0

     negative rho (up, down):  7.304E-05 0.000E+00

     add environment contribution to local potential
     polarization accuracy = 4.0E-06, # of iterations =  29

     total cpu time spent up to now is       44.6 secs

     total energy              =     -81.34763288 Ry
     estimated scf accuracy    <       0.00527921 Ry
     electrostatic embedding   =      -0.26365896 Ry
     correction to one-el term =     -10.36418178 Ry

     iteration #  5     ecut=    30.00 Ry     beta= 0.70
     Davidson diagonalization with overlap
     ethr =  2.20E-05,  avg # of iterations =  5.0

     negative rho (up, down):  8.026E-05 0.000E+00

     add environment contribution to local potential
     polarization accuracy = 9.1E-06, # of iterations =  28

     total cpu time spent up to now is       53.9 secs

     total energy              =     -81.35007664 Ry
     estimated scf accuracy    <       0.00068273 Ry
     electrostatic embedding   =      -0.26215487 Ry
     correction to one-el term =     -10.26889742 Ry

     iteration #  6     ecut=    30.00 Ry     beta= 0.70
     Davidson diagonalization with overlap
     ethr =  2.84E-06,  avg # of iterations =  5.0

     negative rho (up, down):  1.388E-04 0.000E+00

     add environment contribution to local potential
     polarization accuracy = 5.8E-06, # of iterations =  28

     total cpu time spent up to now is       63.4 secs

     total energy              =     -81.35068925 Ry
     estimated scf accuracy    <       0.00020425 Ry
     electrostatic embedding   =      -0.26315122 Ry
     correction to one-el term =     -10.25174842 Ry

     iteration #  7     ecut=    30.00 Ry     beta= 0.70
     Davidson diagonalization with overlap
     ethr =  8.51E-07,  avg # of iterations =  3.0

     negative rho (up, down):  2.907E-04 0.000E+00

     add environment contribution to local potential
     polarization accuracy = 7.7E-06, # of iterations =  28

     total cpu time spent up to now is       72.8 secs

     total energy              =     -81.35087636 Ry
     estimated scf accuracy    <       0.00002952 Ry
     electrostatic embedding   =      -0.26444014 Ry
     correction to one-el term =     -10.25411406 Ry

     iteration #  8     ecut=    30.00 Ry     beta= 0.70
     Davidson diagonalization with overlap
     ethr =  1.23E-07,  avg # of iterations =  5.0

     negative rho (up, down):  2.813E-04 0.000E+00

     add environment contribution to local potential
     polarization accuracy = 9.7E-06, # of iterations =  28

     total cpu time spent up to now is       83.2 secs

     total energy              =     -81.35094905 Ry
     estimated scf accuracy    <       0.00001687 Ry
     electrostatic embedding   =      -0.26586061 Ry
     correction to one-el term =     -10.25832629 Ry

     iteration #  9     ecut=    30.00 Ry     beta= 0.70
     Davidson diagonalization with overlap
     ethr =  7.03E-08,  avg # of iterations =  4.0

     negative rho (up, down):  2.800E-04 0.000E+00

     the potential shift due to the Gaussian-smeared nuclei is    -0.0668 ev

     total cpu time spent up to now is       86.7 secs

     End of self-consistent calculation

          k = 0.0000 0.0000 0.0000 ( 11060 PWs)   bands (ev):

   -29.1816 -23.4067 -18.9910 -16.2940 -14.9365 -13.6851 -12.0075 -11.2781
   -10.0224 -10.0017  -9.6244  -7.7077

     highest occupied level (ev):    -7.7077

!    total energy              =     -81.35102719 Ry
     estimated scf accuracy    <       0.00000354 Ry

     The total energy is the sum of the following terms:
     one-electron contribution =    -400.27685052 Ry
     hartree contribution      =     202.01865665 Ry
     xc contribution           =     -22.97165036 Ry
     ewald contribution        =     150.41270189 Ry
     electrostatic embedding   =      -0.26741972 Ry
     correction to one-el term =     -10.26646512 Ry

     convergence has been achieved in   9 iterations
 forces lc
       1    0.0492    0.0000   -0.1190
       2    0.0470    0.0000   -0.0508
       3   -0.0127    0.0000   -0.1314
       4    0.0118    0.0002   -0.0117
       5    0.0064    0.0000   -0.0058
       6    0.0118   -0.0002   -0.0117
       7    0.2352   -0.0000   -0.2938
       8   -0.0315   -0.0000   -0.0529
       9    0.0240    0.0000    0.0057
      10    0.0654   -0.0000   -0.1213
 forces mt   2.0000000000000000     
       1    0.0059    0.0000   -0.0054
       2    0.0054    0.0000   -0.0222
       3   -0.0051    0.0000    0.0005
       4    0.0005    0.0011   -0.0066
       5    0.0029    0.0000   -0.0063
       6    0.0005   -0.0011   -0.0066
       7    0.0228    0.0000    0.0011
       8   -0.0012    0.0000    0.0026
       9   -0.0028   -0.0000   -0.0011
      10    0.0030    0.0000    0.0024
 WARNING: Unphysical forces due to core electrons are non-negligible 
 atom type   8 is subject to a spurious force of     0.000639 
 WARNING: Unphysical forces due to core electrons are non-negligible 
 atom type   9 is subject to a spurious force of     0.000394 
 WARNING: Unphysical forces due to core electrons are non-negligible 
 atom type  10 is subject to a spurious force of     0.039584 

     Forces acting on atoms (cartesian axes, Ry/au):

     atom    1 type  1   force =     0.21393789   -0.00000155    0.09193880
     atom    2 type  1   force =    -0.03044178    0.00001138   -0.07259667
     atom    3 type  3   force =    -0.13628686   -0.00000018    0.04158129
     atom    4 type  2   force =     0.01741945   -0.02630201    0.00835095
     atom    5 type  2   force =    -0.02936864    0.00000362    0.01101783
     atom    6 type  2   force =     0.01741745    0.02631389    0.00835294
     atom    7 type  4   force =    -0.09189618   -0.00003094    0.00247916
     atom    8 type  2   force =     0.00531477    0.00000149   -0.05184276
     atom    9 type  2   force =     0.04097471    0.00000485    0.03540471
     atom   10 type  2   force =    -0.00707082   -0.00000053   -0.07468627

     Total force =     0.321814     Total SCF correction =     0.002276

     Writing output data file /Users/gabrielmedrano/Desktop/q-e/Environ/tests/../..//tempdir/pwscf.save/

     init_run     :      8.28s CPU      8.94s WALL (       1 calls)
     electrons    :     77.40s CPU     77.68s WALL (       1 calls)
     forces       :      3.47s CPU      3.75s WALL (       1 calls)

     Called by init_run:
     wfcinit      :      0.14s CPU      0.14s WALL (       1 calls)
     potinit      :      2.03s CPU      2.20s WALL (       1 calls)
     hinit0       :      4.97s CPU      5.13s WALL (       1 calls)

     Called by electrons:
     c_bands      :      2.68s CPU      2.20s WALL (       9 calls)
     sum_band     :     13.30s CPU      8.27s WALL (       9 calls)
     v_of_rho     :      6.26s CPU      7.39s WALL (      10 calls)
     newd         :      4.34s CPU      6.11s WALL (      10 calls)
     mix_rho      :      0.83s CPU      0.94s WALL (       9 calls)

     Called by c_bands:
     init_us_2    :      0.08s CPU      0.08s WALL (      19 calls)
     regterg      :      2.58s CPU      2.10s WALL (       9 calls)

     Called by *egterg:
     rdiaghg      :      0.01s CPU      0.01s WALL (      42 calls)
     h_psi        :      2.18s CPU      2.02s WALL (      43 calls)
     s_psi        :      0.18s CPU      0.02s WALL (      43 calls)
     g_psi        :      0.01s CPU      0.01s WALL (      33 calls)

     Called by h_psi:
     h_psi:calbec :      0.06s CPU      0.05s WALL (      43 calls)
     vloc_psi     :      1.86s CPU      1.88s WALL (      43 calls)
     add_vuspsi   :      0.26s CPU      0.08s WALL (      43 calls)

     General routines
     calbec       :      0.07s CPU      0.07s WALL (      56 calls)
     fft          :     35.90s CPU     37.71s WALL (     698 calls)
     ffts         :      0.12s CPU      0.12s WALL (      19 calls)
     fftw         :      1.64s CPU      1.66s WALL (     458 calls)
     interpolate  :      0.54s CPU      0.61s WALL (      10 calls)

     Parallel routines
     fft_scatt_xy :      3.38s CPU      3.40s WALL (     583 calls)
     fft_scatt_yz :      4.54s CPU      4.57s WALL (     583 calls)

     Environ routines
     calc_eelect  :      0.05s CPU      0.05s WALL (      18 calls)
     calc_velect  :     37.56s CPU     39.69s WALL (      16 calls)
     dielectric   :      0.58s CPU      0.67s WALL (      12 calls)
     calc_felect  :      0.47s CPU      0.50s WALL (       1 calls)

     PWSCF        :   1m29.26s CPU   1m30.59s WALL


   This run was terminated on:  11:32:12  22Jan2021            

=------------------------------------------------------------------------------=
   JOB DONE.
=------------------------------------------------------------------------------=
 Calling electrostatic_initbase now
 electrolyte_distance:    0.0000000000000000     
 sc_distance:    0.0000000000000000     
 velectrostatic started
 vreference created

%%%% IONS %%%%%%%%%%%%%%%%%%%%%%%%%%%%%%%%%%%%%%%%%%%%%%%%%%%%%%%%%%%%%%%%%%%%%%
 number of ions             =         10
 ionic center of charge     =      0.0095530    -0.0000002     0.0063981
 total ionic charge         =    -25.0000000
 ionic dipole               =      0.0000000     0.0000000     0.0000000
 ionic quadrupole (pc)      =    -79.0828051    -5.4513517  -105.8059620
 ionic quadrupole (gauss)   =    -82.2078051    -8.5763517  -108.9309620
 ion   1 type =  1 coordinates =      0.0000000     0.0000000     0.0000000
 ion   2 type =  1 coordinates =      0.0000000     0.0000000     2.9101782
 ion   3 type =  3 coordinates =      2.3419379     0.0000000    -1.0900479
 ion   4 type =  2 coordinates =      0.9532347    -1.6509323     3.5841800
 ion   5 type =  2 coordinates =     -1.9063663    -0.0000596     3.5841809
 ion   6 type =  2 coordinates =      0.9531315     1.6509919     3.5841800
 ion   7 type =  4 coordinates =     -1.9680045    -0.0000375    -1.2826193
 ion   8 type =  2 coordinates =      2.5262613    -0.0000303    -2.9510950
 ion   9 type =  2 coordinates =      3.8892907     0.0002681    -0.0514326
 ion  10 type =  2 coordinates =     -1.5407317    -0.0000890    -3.0457220

%%%% SYSTEM %%%%%%%%%%%%%%%%%%%%%%%%%%%%%%%%%%%%%%%%%%%%%%%%%%%%%%%%%%%%%%%%%%%%
 system is built from all present ionic types
 system defined dimension   =  0 
 system defined axis        =  3 
 system center              =      0.0095530    -0.0000002     0.0063981 
 system width               =      0.2021425 

%%%% IONS %%%%%%%%%%%%%%%%%%%%%%%%%%%%%%%%%%%%%%%%%%%%%%%%%%%%%%%%%%%%%%%%%%%%%%
 number of ions             =         10
 ionic center of charge     =      0.0095530    -0.0000002     0.0063981
 total ionic charge         =    -25.0000000
 ionic dipole               =      0.0000000     0.0000000     0.0000000
 ionic quadrupole (pc)      =    -79.0828051    -5.4513517  -105.8059620
 ionic quadrupole (gauss)   =    -82.2078051    -8.5763517  -108.9309620
 ion   1 type =  1 coordinates =      0.0000000     0.0000000     0.0000000
 ion   2 type =  1 coordinates =      0.0000000     0.0000000     2.9101782
 ion   3 type =  3 coordinates =      2.3419379     0.0000000    -1.0900479
 ion   4 type =  2 coordinates =      0.9532347    -1.6509323     3.5841800
 ion   5 type =  2 coordinates =     -1.9063663    -0.0000596     3.5841809
 ion   6 type =  2 coordinates =      0.9531315     1.6509919     3.5841800
 ion   7 type =  4 coordinates =     -1.9680045    -0.0000375    -1.2826193
 ion   8 type =  2 coordinates =      2.5262613    -0.0000303    -2.9510950
 ion   9 type =  2 coordinates =      3.8892907     0.0002681    -0.0514326
 ion  10 type =  2 coordinates =     -1.5407317    -0.0000890    -3.0457220

%%%% SYSTEM %%%%%%%%%%%%%%%%%%%%%%%%%%%%%%%%%%%%%%%%%%%%%%%%%%%%%%%%%%%%%%%%%%%%
 system is built from all present ionic types
 system defined dimension   =  0 
 system defined axis        =  3 
 system center              =      0.0095530    -0.0000002     0.0063981 
 system width               =      0.2021425 

%%%% ELECTRONS %%%%%%%%%%%%%%%%%%%%%%%%%%%%%%%%%%%%%%%%%%%%%%%%%%%%%%%%%%%%%%%%%
 number of electrons        =         24
 total electronic charge    =     24.0000000

%%%% ELECTRONS %%%%%%%%%%%%%%%%%%%%%%%%%%%%%%%%%%%%%%%%%%%%%%%%%%%%%%%%%%%%%%%%%
 number of electrons        =         24
 total electronic charge    =     24.0000000

%%%% BOUNDARY %%%%%%%%%%%%%%%%%%%%%%%%%%%%%%%%%%%%%%%%%%%%%%%%%%%%%%%%%%%%%%%%%%
 boundary label             = solvent              
 boundary mode              = full                 
 boundary is built as a function of a smooth density
 function type              =  2 
 using the modified SCCS function with parameters 
 rhomax                     =      0.0050000 
 rhomin                     =      0.0001000 
 volume of the QM region    =   2771.6247498 
 surface of the QM region   =    905.6004064 

%%%% DIELECTRIC %%%%%%%%%%%%%%%%%%%%%%%%%%%%%%%%%%%%%%%%%%%%%%%%%%%%%%%%%%%%%%%%%
 dielectric build on homogeneous background
 environment bulk permitt.  =    100.0000000 
 dielectric flags
 need gradient              =  F 
 need factor depend. sqrt   =  T 
 total dielectric charge    =      0.0000000

%%%% DENSITY %%%%%%%%%%%%%%%%%%%%%%%%%%%%%%%%%%%%%%%%%%%%%%%%%%%%%%%%%%%%%%%%%%%
 density label              = dvtot                                                                           
 integral of density        =      0.000000000    

%%%% DENSITY %%%%%%%%%%%%%%%%%%%%%%%%%%%%%%%%%%%%%%%%%%%%%%%%%%%%%%%%%%%%%%%%%%%
 density label              = vreference                                                                      
 integral of density        =      0.000000000    

%%%% DENSITY %%%%%%%%%%%%%%%%%%%%%%%%%%%%%%%%%%%%%%%%%%%%%%%%%%%%%%%%%%%%%%%%%%%
 density label              = velectrostatic                                                                  
 integral of density        =      0.000000000    

%%%% CHARGES %%%%%%%%%%%%%%%%%%%%%%%%%%%%%%%%%%%%%%%%%%%%%%%%%%%%%%%%%%%%%%%%%%%
 total number of charges    =         34
 total charge               =     -1.0000000

%%%% DENSITY %%%%%%%%%%%%%%%%%%%%%%%%%%%%%%%%%%%%%%%%%%%%%%%%%%%%%%%%%%%%%%%%%%%
 density label              = vsoftcavity                                                                     
 integral of density        =      0.000000000    

%%%% ELECTRONS %%%%%%%%%%%%%%%%%%%%%%%%%%%%%%%%%%%%%%%%%%%%%%%%%%%%%%%%%%%%%%%%%
 number of electrons        =         24
 total electronic charge    =     24.0000000

%%%% ELECTRONS %%%%%%%%%%%%%%%%%%%%%%%%%%%%%%%%%%%%%%%%%%%%%%%%%%%%%%%%%%%%%%%%%
 number of electrons        =         24
 total electronic charge    =     24.0000000

%%%% BOUNDARY %%%%%%%%%%%%%%%%%%%%%%%%%%%%%%%%%%%%%%%%%%%%%%%%%%%%%%%%%%%%%%%%%%
 boundary label             = solvent              
 boundary mode              = full                 
 boundary is built as a function of a smooth density
 function type              =  2 
 using the modified SCCS function with parameters 
 rhomax                     =      0.0050000 
 rhomin                     =      0.0001000 
 volume of the QM region    =   1002.0124313 
 surface of the QM region   =    494.3047326 

%%%% DIELECTRIC %%%%%%%%%%%%%%%%%%%%%%%%%%%%%%%%%%%%%%%%%%%%%%%%%%%%%%%%%%%%%%%%%
 dielectric build on homogeneous background
 environment bulk permitt.  =    100.0000000 
 dielectric flags
 need gradient              =  F 
 need factor depend. sqrt   =  T 
 total dielectric charge    =      0.0000000

%%%% DENSITY %%%%%%%%%%%%%%%%%%%%%%%%%%%%%%%%%%%%%%%%%%%%%%%%%%%%%%%%%%%%%%%%%%%
 density label              = vreference                                                                      
 integral of density        =     -1906.247710    

%%%% COMPUTE ELECTROSTATIC POTENTIAL %%%%%%%%%%%%%%%%%%%%%%%%%%%%%%%%%%%%%%%%%%%
 Iteration #          1
  pAp =    102.91408146531880       rzold =    90.697412784649259       alpha =   0.88129254513352029     
 delta_qm =   0.342033E-01 delta_en =   0.202153E+04 tol =   0.100000E-04
 Iteration #          2
  pAp =    2747.5728131810210       rzold =    163.16260229196521       alpha =    5.9384268729556475E-002
 delta_qm =   0.694461E-02 delta_en =   0.833372E+02 tol =   0.100000E-04
 Iteration #          3
  pAp =    5.6193438887125815       rzold =   0.99693123671216355       alpha =   0.17741061171121264     
 delta_qm =   0.393100E-02 delta_en =   0.267023E+02 tol =   0.100000E-04
 Iteration #          4
  pAp =   0.69630686022194699       rzold =   0.19832839241646461       alpha =   0.28482900822382773     
 delta_qm =   0.184700E-02 delta_en =   0.589490E+01 tol =   0.100000E-04
 Iteration #          5
  pAp =    6.6746895627544003E-002  rzold =    2.2130143148488789E-002  alpha =   0.33155314476313241     
 delta_qm =   0.131243E-02 delta_en =   0.297642E+01 tol =   0.100000E-04
 Iteration #          6
  pAp =    1.4151062020732288E-002  rzold =    5.3451929996047179E-003  alpha =   0.37772380558954793     
 delta_qm =   0.855301E-03 delta_en =   0.126410E+01 tol =   0.100000E-04
 Iteration #          7
  pAp =    8.0566150105778958E-003  rzold =    2.3798491690595822E-003  alpha =   0.29539070266296330     
 delta_qm =   0.607583E-03 delta_en =   0.637904E+00 tol =   0.100000E-04
 Iteration #          8
  pAp =    2.5531231489928819E-003  rzold =    1.5470136796417364E-003  alpha =   0.60592990990347617     
 delta_qm =   0.347203E-03 delta_en =   0.208310E+00 tol =   0.100000E-04
 Iteration #          9
  pAp =    1.1438748330599108E-003  rzold =    8.4075635894363091E-004  alpha =   0.73500730555857596     
 delta_qm =   0.287332E-03 delta_en =   0.142663E+00 tol =   0.100000E-04
 Iteration #         10
  pAp =    6.4548221030385458E-004  rzold =    3.0554126263968793E-004  alpha =   0.47335349876777749     
 delta_qm =   0.205447E-03 delta_en =   0.729360E-01 tol =   0.100000E-04
 Iteration #         11
  pAp =    1.6332954530617354E-004  rzold =    8.9306648397802533E-005  alpha =   0.54678807946468277     
 delta_qm =   0.120437E-03 delta_en =   0.250647E-01 tol =   0.100000E-04
 Iteration #         12
  pAp =    4.3493248493154241E-005  rzold =    2.8432438033303319E-005  alpha =   0.65372072720156860     
 delta_qm =   0.506525E-04 delta_en =   0.443349E-02 tol =   0.100000E-04
 Iteration #         13
  pAp =    4.0431682606728554E-005  rzold =    1.5213340061731251E-005  alpha =   0.37627274159496593     
 delta_qm =   0.274717E-04 delta_en =   0.130412E-02 tol =   0.100000E-04
 Iteration #         14
  pAp =    9.9088861778614650E-006  rzold =    3.8097106610032274E-006  alpha =   0.38447415709698252     
 delta_qm =   0.176632E-04 delta_en =   0.539116E-03 tol =   0.100000E-04
 Iteration #         15
  pAp =    2.4832038588678424E-005  rzold =    2.1282914415728672E-006  alpha =    8.5707479632510353E-002
 delta_qm =   0.158240E-04 delta_en =   0.432688E-03 tol =   0.100000E-04
 Iteration #         16
  pAp =    3.3147268199488973E-006  rzold =    9.2968813638233047E-007  alpha =   0.28047202284882811     
 delta_qm =   0.961631E-05 delta_en =   0.159794E-03 tol =   0.100000E-04
 Iteration #         17
  pAp =    6.6902086324980256E-007  rzold =    2.1741433746993811E-007  alpha =   0.32497392744052406     
 delta_qm =   0.585019E-05 delta_en =   0.591403E-04 tol =   0.100000E-04
 Iteration #         18
  pAp =    1.1354491642866301E-007  rzold =    6.5749318648887024E-008  alpha =   0.57905999420234211     
 delta_qm =   0.202714E-05 delta_en =   0.710087E-05 tol =   0.100000E-04
 Charges are converged, EXIT

%%%% DENSITY %%%%%%%%%%%%%%%%%%%%%%%%%%%%%%%%%%%%%%%%%%%%%%%%%%%%%%%%%%%%%%%%%%%
 density label              = velectrostatic                                                                  
 integral of density        =     -180.7219757    

%%%% CHARGES %%%%%%%%%%%%%%%%%%%%%%%%%%%%%%%%%%%%%%%%%%%%%%%%%%%%%%%%%%%%%%%%%%%
 total number of charges    =         35
 total charge               =     -0.0000000

%%%% DENSITY %%%%%%%%%%%%%%%%%%%%%%%%%%%%%%%%%%%%%%%%%%%%%%%%%%%%%%%%%%%%%%%%%%%
 density label              = vsoftcavity                                                                     
 integral of density        =      438.6928206    

%%%% DENSITY %%%%%%%%%%%%%%%%%%%%%%%%%%%%%%%%%%%%%%%%%%%%%%%%%%%%%%%%%%%%%%%%%%%
 density label              = dvtot                                                                           
 integral of density        =      2164.218555    

%%%% ELECTRONS %%%%%%%%%%%%%%%%%%%%%%%%%%%%%%%%%%%%%%%%%%%%%%%%%%%%%%%%%%%%%%%%%
 number of electrons        =         24
 total electronic charge    =     24.0000000

%%%% ELECTRONS %%%%%%%%%%%%%%%%%%%%%%%%%%%%%%%%%%%%%%%%%%%%%%%%%%%%%%%%%%%%%%%%%
 number of electrons        =         24
 total electronic charge    =     24.0000000

%%%% BOUNDARY %%%%%%%%%%%%%%%%%%%%%%%%%%%%%%%%%%%%%%%%%%%%%%%%%%%%%%%%%%%%%%%%%%
 boundary label             = solvent              
 boundary mode              = full                 
 boundary is built as a function of a smooth density
 function type              =  2 
 using the modified SCCS function with parameters 
 rhomax                     =      0.0050000 
 rhomin                     =      0.0001000 
 volume of the QM region    =    750.3807254 
 surface of the QM region   =    419.2837767 

%%%% DIELECTRIC %%%%%%%%%%%%%%%%%%%%%%%%%%%%%%%%%%%%%%%%%%%%%%%%%%%%%%%%%%%%%%%%%
 dielectric build on homogeneous background
 environment bulk permitt.  =    100.0000000 
 dielectric flags
 need gradient              =  F 
 need factor depend. sqrt   =  T 
 total dielectric charge    =      0.0571091

%%%% DENSITY %%%%%%%%%%%%%%%%%%%%%%%%%%%%%%%%%%%%%%%%%%%%%%%%%%%%%%%%%%%%%%%%%%%
 density label              = vreference                                                                      
 integral of density        =     -1906.247710    

%%%% COMPUTE ELECTROSTATIC POTENTIAL %%%%%%%%%%%%%%%%%%%%%%%%%%%%%%%%%%%%%%%%%%%
 Warning: bad guess with residual norm =   0.694526E+04, reset to no guess
 Iteration #          1
  pAp =    106.74113105216307       rzold =    92.198894692037484       alpha =   0.86376164261348354     
 delta_qm =   0.555634E-01 delta_en =   0.533484E+04 tol =   0.100000E-04
 Iteration #          2
  pAp =    5648.0671713891388       rzold =    258.23592430174381       alpha =    4.5721114226449762E-002
 delta_qm =   0.632958E-02 delta_en =   0.692300E+02 tol =   0.100000E-04
 Iteration #          3
  pAp =    5.0481829809009318       rzold =   0.70332791506656389       alpha =   0.13932298368096066     
 delta_qm =   0.372031E-02 delta_en =   0.239168E+02 tol =   0.100000E-04
 Iteration #          4
  pAp =   0.52684560581663364       rzold =   0.11019647763128583       alpha =   0.20916275359358172     
 delta_qm =   0.259586E-02 delta_en =   0.116441E+02 tol =   0.100000E-04
 Iteration #          5
  pAp =    3.9685005714245977E-002  rzold =    1.3537525114865430E-002  alpha =   0.34112443405812032     
 delta_qm =   0.152602E-02 delta_en =   0.402408E+01 tol =   0.100000E-04
 Iteration #          6
  pAp =    2.0652506281087803E-002  rzold =    6.0655665910458239E-003  alpha =   0.29369639251001067     
 delta_qm =   0.995662E-03 delta_en =   0.171304E+01 tol =   0.100000E-04
 Iteration #          7
  pAp =    1.8279254326282315E-002  rzold =    4.4314167493780558E-003  alpha =   0.24242874847506590     
 delta_qm =   0.798411E-03 delta_en =   0.110153E+01 tol =   0.100000E-04
 Iteration #          8
  pAp =    5.0011811801584311E-003  rzold =    2.1437447718014699E-003  alpha =   0.42864769233046640     
 delta_qm =   0.456706E-03 delta_en =   0.360427E+00 tol =   0.100000E-04
 Iteration #          9
  pAp =    2.5093526031544498E-003  rzold =    1.1910662438542889E-003  alpha =   0.47465080927926462     
 delta_qm =   0.404928E-03 delta_en =   0.283335E+00 tol =   0.100000E-04
 Iteration #         10
  pAp =    1.3781889842962686E-003  rzold =    6.2807902215598161E-004  alpha =   0.45572779155297888     
 delta_qm =   0.390077E-03 delta_en =   0.262932E+00 tol =   0.100000E-04
 Iteration #         11
  pAp =    3.6024572706132269E-004  rzold =    2.2430314708133246E-004  alpha =   0.62263929932234985     
 delta_qm =   0.281569E-03 delta_en =   0.136998E+00 tol =   0.100000E-04
 Iteration #         12
  pAp =    2.8005049833401230E-004  rzold =    1.5098488540020460E-004  alpha =   0.53913450002194618     
 delta_qm =   0.197006E-03 delta_en =   0.670658E-01 tol =   0.100000E-04
 Iteration #         13
  pAp =    5.7652539477114897E-004  rzold =    1.8401953975335811E-004  alpha =   0.31918722301279451     
 delta_qm =   0.149073E-03 delta_en =   0.384009E-01 tol =   0.100000E-04
 Iteration #         14
  pAp =    1.9607674737467695E-004  rzold =    7.5611156288085939E-005  alpha =   0.38562020892565568     
 delta_qm =   0.124700E-03 delta_en =   0.268705E-01 tol =   0.100000E-04
 Iteration #         15
  pAp =    1.5117672075543257E-004  rzold =    2.7029180951810087E-005  alpha =   0.17879195167579257     
 delta_qm =   0.110970E-03 delta_en =   0.212791E-01 tol =   0.100000E-04
 Iteration #         16
  pAp =    5.0357371089353360E-004  rzold =    6.2096315045654938E-005  alpha =   0.12331127241625099     
 delta_qm =   0.784209E-04 delta_en =   0.106269E-01 tol =   0.100000E-04
 Iteration #         17
  pAp =    2.4585227185657242E-005  rzold =    1.1061875117321910E-005  alpha =   0.44993991854487680     
 delta_qm =   0.421805E-04 delta_en =   0.307445E-02 tol =   0.100000E-04
 Iteration #         18
  pAp =    1.1051888800847038E-005  rzold =    5.0953948695311315E-006  alpha =   0.46104290057104180     
 delta_qm =   0.238787E-04 delta_en =   0.985294E-03 tol =   0.100000E-04
 Iteration #         19
  pAp =    7.6906560227457641E-006  rzold =    2.0736697410662642E-006  alpha =   0.26963496156026368     
 delta_qm =   0.190756E-04 delta_en =   0.628782E-03 tol =   0.100000E-04
 Iteration #         20
  pAp =    9.2912983630938392E-007  rzold =    4.8493534375975255E-007  alpha =   0.52192419703792359     
 delta_qm =   0.973597E-05 delta_en =   0.163795E-03 tol =   0.100000E-04
 Iteration #         21
  pAp =    2.4409592005361570E-007  rzold =    1.2006462343389971E-007  alpha =   0.49187476549189146     
 delta_qm =   0.494122E-05 delta_en =   0.421903E-04 tol =   0.100000E-04
 Iteration #         22
  pAp =    7.6959081185772534E-008  rzold =    3.7927384735158830E-008  alpha =   0.49282533199175571     
 delta_qm =   0.228276E-05 delta_en =   0.900462E-05 tol =   0.100000E-04
 Charges are converged, EXIT

%%%% DENSITY %%%%%%%%%%%%%%%%%%%%%%%%%%%%%%%%%%%%%%%%%%%%%%%%%%%%%%%%%%%%%%%%%%%
 density label              = velectrostatic                                                                  
 integral of density        =     -181.6115339    

%%%% CHARGES %%%%%%%%%%%%%%%%%%%%%%%%%%%%%%%%%%%%%%%%%%%%%%%%%%%%%%%%%%%%%%%%%%%
 total number of charges    =         35
 total charge               =     -0.0000000

%%%% DENSITY %%%%%%%%%%%%%%%%%%%%%%%%%%%%%%%%%%%%%%%%%%%%%%%%%%%%%%%%%%%%%%%%%%%
 density label              = vsoftcavity                                                                     
 integral of density        =      164.7371584    

%%%% DENSITY %%%%%%%%%%%%%%%%%%%%%%%%%%%%%%%%%%%%%%%%%%%%%%%%%%%%%%%%%%%%%%%%%%%
 density label              = dvtot                                                                           
 integral of density        =      1889.373334    

%%%% ELECTRONS %%%%%%%%%%%%%%%%%%%%%%%%%%%%%%%%%%%%%%%%%%%%%%%%%%%%%%%%%%%%%%%%%
 number of electrons        =         24
 total electronic charge    =     24.0000000

%%%% ELECTRONS %%%%%%%%%%%%%%%%%%%%%%%%%%%%%%%%%%%%%%%%%%%%%%%%%%%%%%%%%%%%%%%%%
 number of electrons        =         24
 total electronic charge    =     24.0000000

%%%% BOUNDARY %%%%%%%%%%%%%%%%%%%%%%%%%%%%%%%%%%%%%%%%%%%%%%%%%%%%%%%%%%%%%%%%%%
 boundary label             = solvent              
 boundary mode              = full                 
 boundary is built as a function of a smooth density
 function type              =  2 
 using the modified SCCS function with parameters 
 rhomax                     =      0.0050000 
 rhomin                     =      0.0001000 
 volume of the QM region    =    710.2727552 
 surface of the QM region   =    409.5660642 

%%%% DIELECTRIC %%%%%%%%%%%%%%%%%%%%%%%%%%%%%%%%%%%%%%%%%%%%%%%%%%%%%%%%%%%%%%%%%
 dielectric build on homogeneous background
 environment bulk permitt.  =    100.0000000 
 dielectric flags
 need gradient              =  F 
 need factor depend. sqrt   =  T 
 total dielectric charge    =      0.0384646

%%%% DENSITY %%%%%%%%%%%%%%%%%%%%%%%%%%%%%%%%%%%%%%%%%%%%%%%%%%%%%%%%%%%%%%%%%%%
 density label              = vreference                                                                      
 integral of density        =     -1906.247710    

%%%% COMPUTE ELECTROSTATIC POTENTIAL %%%%%%%%%%%%%%%%%%%%%%%%%%%%%%%%%%%%%%%%%%%
 Warning: bad guess with residual norm =   0.133956E+05, reset to no guess
 Iteration #          1
  pAp =    109.54990005119929       rzold =    94.019248777573566       alpha =   0.85823217304290278     
 delta_qm =   0.761647E-01 delta_en =   0.100242E+05 tol =   0.100000E-04
 Iteration #          2
  pAp =    7698.2153248844670       rzold =    311.00481683073400       alpha =    4.0399599609199227E-002
 delta_qm =   0.937781E-02 delta_en =   0.151966E+03 tol =   0.100000E-04
 Iteration #          3
  pAp =    12.533631095274375       rzold =    1.3779858120485755       alpha =   0.10994306450970344     
 delta_qm =   0.724772E-02 delta_en =   0.907709E+02 tol =   0.100000E-04
 Iteration #          4
  pAp =   0.74365586411365281       rzold =   0.12950804710298491       alpha =   0.17415050879393351     
 delta_qm =   0.607387E-02 delta_en =   0.637493E+02 tol =   0.100000E-04
 Iteration #          5
  pAp =    7.6286525798913679E-002  rzold =    1.8449775153780427E-002  alpha =   0.24184841242361507     
 delta_qm =   0.463378E-02 delta_en =   0.371035E+02 tol =   0.100000E-04
 Iteration #          6
  pAp =    3.9413416765032357E-002  rzold =    1.0645776423390959E-002  alpha =   0.27010539296445640     
 delta_qm =   0.294486E-02 delta_en =   0.149856E+02 tol =   0.100000E-04
 Iteration #          7
  pAp =    3.0127485559679035E-002  rzold =    9.6668998996655969E-003  alpha =   0.32086646861108259     
 delta_qm =   0.206497E-02 delta_en =   0.736837E+01 tol =   0.100000E-04
 Iteration #          8
  pAp =    1.1341299069360749E-002  rzold =    4.9225468544525312E-003  alpha =   0.43403730245956645     
 delta_qm =   0.116827E-02 delta_en =   0.235847E+01 tol =   0.100000E-04
 Iteration #          9
  pAp =    7.5584215732536391E-003  rzold =    3.4735228982444217E-003  alpha =   0.45955665009952473     
 delta_qm =   0.798578E-03 delta_en =   0.110199E+01 tol =   0.100000E-04
 Iteration #         10
  pAp =    3.8926844746583291E-003  rzold =    1.6361347205751484E-003  alpha =   0.42031013076618706     
 delta_qm =   0.788587E-03 delta_en =   0.107459E+01 tol =   0.100000E-04
 Iteration #         11
  pAp =    8.9112907196178511E-004  rzold =    3.9493591730288639E-004  alpha =   0.44318598700124406     
 delta_qm =   0.633285E-03 delta_en =   0.693015E+00 tol =   0.100000E-04
 Iteration #         12
  pAp =    6.8454679108262873E-004  rzold =    2.8751970093684635E-004  alpha =   0.42001467932108250     
 delta_qm =   0.454399E-03 delta_en =   0.356795E+00 tol =   0.100000E-04
 Iteration #         13
  pAp =    5.5521339751195135E-004  rzold =    2.8404132937415237E-004  alpha =   0.51158947288918433     
 delta_qm =   0.308136E-03 delta_en =   0.164070E+00 tol =   0.100000E-04
 Iteration #         14
  pAp =    6.5875954849603480E-004  rzold =    2.1448654859755023E-004  alpha =   0.32559155929842476     
 delta_qm =   0.320486E-03 delta_en =   0.177485E+00 tol =   0.100000E-04
 Iteration #         15
  pAp =    4.2316387050174371E-004  rzold =    1.1034606146110041E-004  alpha =   0.26076437322086010     
 delta_qm =   0.312127E-03 delta_en =   0.168348E+00 tol =   0.100000E-04
 Iteration #         16
  pAp =    8.7620505882120509E-004  rzold =    8.1203165270843358E-005  alpha =    9.2675983154091049E-002
 delta_qm =   0.300185E-03 delta_en =   0.155712E+00 tol =   0.100000E-04
 Iteration #         17
  pAp =    4.7551961555766640E-004  rzold =    1.0526540035348638E-004  alpha =   0.22136920730396414     
 delta_qm =   0.202039E-03 delta_en =   0.705363E-01 tol =   0.100000E-04
 Iteration #         18
  pAp =    5.1582732383316152E-005  rzold =    3.0417343471741280E-005  alpha =   0.58968073357780137     
 delta_qm =   0.107211E-03 delta_en =   0.198619E-01 tol =   0.100000E-04
 Iteration #         19
  pAp =    5.5541540778197473E-005  rzold =    2.0363984256048356E-005  alpha =   0.36664420847399548     
 delta_qm =   0.912075E-04 delta_en =   0.143749E-01 tol =   0.100000E-04
 Iteration #         20
  pAp =    1.1089742963644430E-005  rzold =    5.9321716716267112E-006  alpha =   0.53492418093676153     
 delta_qm =   0.619135E-04 delta_en =   0.662391E-02 tol =   0.100000E-04
 Iteration #         21
  pAp =    5.6784962127224320E-006  rzold =    2.4483633868545797E-006  alpha =   0.43116404328475633     
 delta_qm =   0.414063E-04 delta_en =   0.296263E-02 tol =   0.100000E-04
 Iteration #         22
  pAp =    1.8521529990719962E-006  rzold =    9.4271823913057858E-007  alpha =   0.50898507823215400     
 delta_qm =   0.224223E-04 delta_en =   0.868772E-03 tol =   0.100000E-04
 Iteration #         23
  pAp =    5.0373758346259424E-007  rzold =    2.9669841596344484E-007  alpha =   0.58899400343329078     
 delta_qm =   0.115261E-04 delta_en =   0.229568E-03 tol =   0.100000E-04
 Iteration #         24
  pAp =    3.0338595808738433E-007  rzold =    1.3569789624715735E-007  alpha =   0.44727810444039157     
 delta_qm =   0.691361E-05 delta_en =   0.825949E-04 tol =   0.100000E-04
 Iteration #         25
  pAp =    1.8634116714635852E-007  rzold =    5.1738739801556090E-008  alpha =   0.27765598227105004     
 delta_qm =   0.532643E-05 delta_en =   0.490248E-04 tol =   0.100000E-04
 Iteration #         26
  pAp =    3.2583684687101759E-008  rzold =    1.5543305426400889E-008  alpha =   0.47702724770577287     
 delta_qm =   0.313474E-05 delta_en =   0.169804E-04 tol =   0.100000E-04
 Iteration #         27
  pAp =    6.5946570660778107E-009  rzold =    3.8481195576559801E-009  alpha =   0.58352079859471129     
 delta_qm =   0.159341E-05 delta_en =   0.438730E-05 tol =   0.100000E-04
 Charges are converged, EXIT

%%%% DENSITY %%%%%%%%%%%%%%%%%%%%%%%%%%%%%%%%%%%%%%%%%%%%%%%%%%%%%%%%%%%%%%%%%%%
 density label              = velectrostatic                                                                  
 integral of density        =     -183.8429238    

%%%% CHARGES %%%%%%%%%%%%%%%%%%%%%%%%%%%%%%%%%%%%%%%%%%%%%%%%%%%%%%%%%%%%%%%%%%%
 total number of charges    =         35
 total charge               =     -0.0000000

%%%% DENSITY %%%%%%%%%%%%%%%%%%%%%%%%%%%%%%%%%%%%%%%%%%%%%%%%%%%%%%%%%%%%%%%%%%%
 density label              = vsoftcavity                                                                     
 integral of density        =      54.55656359    

%%%% DENSITY %%%%%%%%%%%%%%%%%%%%%%%%%%%%%%%%%%%%%%%%%%%%%%%%%%%%%%%%%%%%%%%%%%%
 density label              = dvtot                                                                           
 integral of density        =      1776.961349    

%%%% ELECTRONS %%%%%%%%%%%%%%%%%%%%%%%%%%%%%%%%%%%%%%%%%%%%%%%%%%%%%%%%%%%%%%%%%
 number of electrons        =         24
 total electronic charge    =     24.0000000

%%%% ELECTRONS %%%%%%%%%%%%%%%%%%%%%%%%%%%%%%%%%%%%%%%%%%%%%%%%%%%%%%%%%%%%%%%%%
 number of electrons        =         24
 total electronic charge    =     24.0000000

%%%% BOUNDARY %%%%%%%%%%%%%%%%%%%%%%%%%%%%%%%%%%%%%%%%%%%%%%%%%%%%%%%%%%%%%%%%%%
 boundary label             = solvent              
 boundary mode              = full                 
 boundary is built as a function of a smooth density
 function type              =  2 
 using the modified SCCS function with parameters 
 rhomax                     =      0.0050000 
 rhomin                     =      0.0001000 
 volume of the QM region    =    704.8203698 
 surface of the QM region   =    408.7873836 

%%%% DIELECTRIC %%%%%%%%%%%%%%%%%%%%%%%%%%%%%%%%%%%%%%%%%%%%%%%%%%%%%%%%%%%%%%%%%
 dielectric build on homogeneous background
 environment bulk permitt.  =    100.0000000 
 dielectric flags
 need gradient              =  F 
 need factor depend. sqrt   =  T 
 total dielectric charge    =      0.0342790

%%%% DENSITY %%%%%%%%%%%%%%%%%%%%%%%%%%%%%%%%%%%%%%%%%%%%%%%%%%%%%%%%%%%%%%%%%%%
 density label              = vreference                                                                      
 integral of density        =     -1906.247710    

%%%% COMPUTE ELECTROSTATIC POTENTIAL %%%%%%%%%%%%%%%%%%%%%%%%%%%%%%%%%%%%%%%%%%%
 Warning: bad guess with residual norm =   0.152493E+05, reset to no guess
 Iteration #          1
  pAp =    108.92390475936149       rzold =    93.648030969575231       alpha =   0.85975646187552446     
 delta_qm =   0.813139E-01 delta_en =   0.114255E+05 tol =   0.100000E-04
 Iteration #          2
  pAp =    7924.7069854737292       rzold =    313.08424220701067       alpha =    3.9507358793316301E-002
 delta_qm =   0.100479E-01 delta_en =   0.174458E+03 tol =   0.100000E-04
 Iteration #          3
  pAp =    14.865708793720536       rzold =    1.5789331106882709       alpha =   0.10621310645848467     
 delta_qm =   0.815547E-02 delta_en =   0.114932E+03 tol =   0.100000E-04
 Iteration #          4
  pAp =   0.81810724723267725       rzold =   0.13663060851400405       alpha =   0.16700818746707061     
 delta_qm =   0.706743E-02 delta_en =   0.863110E+02 tol =   0.100000E-04
 Iteration #          5
  pAp =    8.5717436682223799E-002  rzold =    1.9398555020261162E-002  alpha =   0.22630815585604255     
 delta_qm =   0.555558E-02 delta_en =   0.533338E+02 tol =   0.100000E-04
 Iteration #          6
  pAp =    4.0545917141403751E-002  rzold =    1.0459528191095512E-002  alpha =   0.25796748300495809     
 delta_qm =   0.361223E-02 delta_en =   0.225473E+02 tol =   0.100000E-04
 Iteration #          7
  pAp =    2.6712937807309389E-002  rzold =    9.0433396813304583E-003  alpha =   0.33853781813754508     
 delta_qm =   0.251355E-02 delta_en =   0.109174E+02 tol =   0.100000E-04
 Iteration #          8
  pAp =    1.1426639878246787E-002  rzold =    4.9532297938325431E-003  alpha =   0.43348086984539919     
 delta_qm =   0.142270E-02 delta_en =   0.349759E+01 tol =   0.100000E-04
 Iteration #          9
  pAp =    7.7732349945943092E-003  rzold =    3.7479164477295483E-003  alpha =   0.48215658607207140     
 delta_qm =   0.851353E-03 delta_en =   0.125246E+01 tol =   0.100000E-04
 Iteration #         10
  pAp =    4.4818501561433542E-003  rzold =    1.8923406552421227E-003  alpha =   0.42222309745189868     
 delta_qm =   0.893888E-03 delta_en =   0.138073E+01 tol =   0.100000E-04
 Iteration #         11
  pAp =    1.1645740171446828E-003  rzold =    4.5124056758955055E-004  alpha =   0.38747263887606548     
 delta_qm =   0.740813E-03 delta_en =   0.948334E+00 tol =   0.100000E-04
 Iteration #         12
  pAp =    7.3378451731491456E-004  rzold =    2.9830119197552863E-004  alpha =   0.40652423829693346     
 delta_qm =   0.551195E-03 delta_en =   0.524994E+00 tol =   0.100000E-04
 Iteration #         13
  pAp =    4.3986044245318491E-004  rzold =    2.5995984548611600E-004  alpha =   0.59100528348553183     
 delta_qm =   0.335491E-03 delta_en =   0.194493E+00 tol =   0.100000E-04
 Iteration #         14
  pAp =    6.9451851350772731E-004  rzold =    2.2761190379451518E-004  alpha =   0.32772618636894368     
 delta_qm =   0.327483E-03 delta_en =   0.185320E+00 tol =   0.100000E-04
 Iteration #         15
  pAp =    6.6695904797180799E-003  rzold =    3.5407609860710186E-004  alpha =    5.3088131825159444E-002
 delta_qm =   0.358170E-03 delta_en =   0.221678E+00 tol =   0.100000E-04
 Iteration #         16
  pAp =    4.2262008835796040E-004  rzold =    1.0427777134566099E-004  alpha =   0.24674116119472633     
 delta_qm =   0.341094E-03 delta_en =   0.201044E+00 tol =   0.100000E-04
 Iteration #         17
  pAp =    1.8252342266662867E-004  rzold =    6.4869408458926518E-005  alpha =   0.35540319982607249     
 delta_qm =   0.257724E-03 delta_en =   0.114776E+00 tol =   0.100000E-04
 Iteration #         18
  pAp =    6.5229082487738409E-005  rzold =    3.4544456963715091E-005  alpha =   0.52958673717675953     
 delta_qm =   0.143518E-03 delta_en =   0.355921E-01 tol =   0.100000E-04
 Iteration #         19
  pAp =    6.3023811653193450E-005  rzold =    2.6349941699169078E-005  alpha =   0.41809501850137482     
 delta_qm =   0.107973E-03 delta_en =   0.201454E-01 tol =   0.100000E-04
 Iteration #         20
  pAp =    1.5168421470853255E-005  rzold =    8.2486559847127536E-006  alpha =   0.54380450863413077     
 delta_qm =   0.770613E-04 delta_en =   0.102616E-01 tol =   0.100000E-04
 Iteration #         21
  pAp =    8.1816190480015960E-006  rzold =    3.5068397231914454E-006  alpha =   0.42862417604838365     
 delta_qm =   0.550395E-04 delta_en =   0.523470E-02 tol =   0.100000E-04
 Iteration #         22
  pAp =    2.6036532915997826E-006  rzold =    1.2843431943931164E-006  alpha =   0.49328503089747699     
 delta_qm =   0.329836E-04 delta_en =   0.187992E-02 tol =   0.100000E-04
 Iteration #         23
  pAp =    6.6468590815035776E-007  rzold =    4.0550610787356546E-007  alpha =   0.61007176908862104     
 delta_qm =   0.162930E-04 delta_en =   0.458719E-03 tol =   0.100000E-04
 Iteration #         24
  pAp =    3.6760482533975451E-007  rzold =    1.9681347567968023E-007  alpha =   0.53539415729316842     
 delta_qm =   0.834512E-05 delta_en =   0.120340E-03 tol =   0.100000E-04
 Iteration #         25
  pAp =    8.9950145034815613E-008  rzold =    4.5535205585099602E-008  alpha =   0.50622715024500509     
 delta_qm =   0.594318E-05 delta_en =   0.610354E-04 tol =   0.100000E-04
 Iteration #         26
  pAp =    1.2233624548065391E-007  rzold =    1.7882517583572544E-008  alpha =   0.14617513814743041     
 delta_qm =   0.503160E-05 delta_en =   0.437479E-04 tol =   0.100000E-04
 Iteration #         27
  pAp =    3.1543417970023269E-007  rzold =    2.7076252067406059E-008  alpha =    8.5838041055466774E-002
 delta_qm =   0.404836E-05 delta_en =   0.283205E-04 tol =   0.100000E-04
 Iteration #         28
  pAp =    9.0467494860029335E-008  rzold =    1.4093006215556871E-008  alpha =   0.15577977744781671     
 delta_qm =   0.304925E-05 delta_en =   0.160668E-04 tol =   0.100000E-04
 Iteration #         29
  pAp =    1.0493240119336742E-008  rzold =    4.3637708819398712E-009  alpha =   0.41586495994677541     
 delta_qm =   0.152656E-05 delta_en =   0.402690E-05 tol =   0.100000E-04
 Charges are converged, EXIT

%%%% DENSITY %%%%%%%%%%%%%%%%%%%%%%%%%%%%%%%%%%%%%%%%%%%%%%%%%%%%%%%%%%%%%%%%%%%
 density label              = velectrostatic                                                                  
 integral of density        =     -182.0227798    

%%%% CHARGES %%%%%%%%%%%%%%%%%%%%%%%%%%%%%%%%%%%%%%%%%%%%%%%%%%%%%%%%%%%%%%%%%%%
 total number of charges    =         35
 total charge               =      0.0000000

%%%% DENSITY %%%%%%%%%%%%%%%%%%%%%%%%%%%%%%%%%%%%%%%%%%%%%%%%%%%%%%%%%%%%%%%%%%%
 density label              = vsoftcavity                                                                     
 integral of density        =      47.78478934    

%%%% DENSITY %%%%%%%%%%%%%%%%%%%%%%%%%%%%%%%%%%%%%%%%%%%%%%%%%%%%%%%%%%%%%%%%%%%
 density label              = dvtot                                                                           
 integral of density        =      1772.009719    

%%%% ELECTRONS %%%%%%%%%%%%%%%%%%%%%%%%%%%%%%%%%%%%%%%%%%%%%%%%%%%%%%%%%%%%%%%%%
 number of electrons        =         24
 total electronic charge    =     24.0000000

%%%% ELECTRONS %%%%%%%%%%%%%%%%%%%%%%%%%%%%%%%%%%%%%%%%%%%%%%%%%%%%%%%%%%%%%%%%%
 number of electrons        =         24
 total electronic charge    =     24.0000000

%%%% BOUNDARY %%%%%%%%%%%%%%%%%%%%%%%%%%%%%%%%%%%%%%%%%%%%%%%%%%%%%%%%%%%%%%%%%%
 boundary label             = solvent              
 boundary mode              = full                 
 boundary is built as a function of a smooth density
 function type              =  2 
 using the modified SCCS function with parameters 
 rhomax                     =      0.0050000 
 rhomin                     =      0.0001000 
 volume of the QM region    =    709.0058357 
 surface of the QM region   =    410.7097032 

%%%% DIELECTRIC %%%%%%%%%%%%%%%%%%%%%%%%%%%%%%%%%%%%%%%%%%%%%%%%%%%%%%%%%%%%%%%%%
 dielectric build on homogeneous background
 environment bulk permitt.  =    100.0000000 
 dielectric flags
 need gradient              =  F 
 need factor depend. sqrt   =  T 
 total dielectric charge    =      0.0336748

%%%% DENSITY %%%%%%%%%%%%%%%%%%%%%%%%%%%%%%%%%%%%%%%%%%%%%%%%%%%%%%%%%%%%%%%%%%%
 density label              = vreference                                                                      
 integral of density        =     -1906.247710    

%%%% COMPUTE ELECTROSTATIC POTENTIAL %%%%%%%%%%%%%%%%%%%%%%%%%%%%%%%%%%%%%%%%%%%
 Warning: bad guess with residual norm =   0.146666E+05, reset to no guess
 Iteration #          1
  pAp =    108.79382686088627       rzold =    93.622681941114578       alpha =   0.86055141769053767     
 delta_qm =   0.798336E-01 delta_en =   0.110132E+05 tol =   0.100000E-04
 Iteration #          2
  pAp =    7800.7616909317148       rzold =    309.49150073850092       alpha =    3.9674523206917195E-002
 delta_qm =   0.990436E-02 delta_en =   0.169510E+03 tol =   0.100000E-04
 Iteration #          3
  pAp =    15.976875409860071       rzold =    1.6940702953764066       alpha =   0.10603264104637865     
 delta_qm =   0.716201E-02 delta_en =   0.886366E+02 tol =   0.100000E-04
 Iteration #          4
  pAp =   0.83128618940419352       rzold =   0.13707748181334761       alpha =   0.16489806225650752     
 delta_qm =   0.633446E-02 delta_en =   0.693366E+02 tol =   0.100000E-04
 Iteration #          5
  pAp =    7.9586522563770773E-002  rzold =    1.8694848731293682E-002  alpha =   0.23489968061255531     
 delta_qm =   0.499564E-02 delta_en =   0.431247E+02 tol =   0.100000E-04
 Iteration #          6
  pAp =    4.1934331433562289E-002  rzold =    1.0607920227911256E-002  alpha =   0.25296504952553434     
 delta_qm =   0.321908E-02 delta_en =   0.179063E+02 tol =   0.100000E-04
 Iteration #          7
  pAp =    2.5677956222956332E-002  rzold =    8.7079132815608782E-003  alpha =   0.33912018565464813     
 delta_qm =   0.223036E-02 delta_en =   0.859595E+01 tol =   0.100000E-04
 Iteration #          8
  pAp =    1.1188404628305207E-002  rzold =    4.7886958752808070E-003  alpha =   0.42800524599959766     
 delta_qm =   0.129158E-02 delta_en =   0.288262E+01 tol =   0.100000E-04
 Iteration #          9
  pAp =    7.0487018842772062E-003  rzold =    3.4754624148498727E-003  alpha =   0.49306418003039953     
 delta_qm =   0.816343E-03 delta_en =   0.115157E+01 tol =   0.100000E-04
 Iteration #         10
  pAp =    4.0547160498910773E-003  rzold =    1.7136156439229856E-003  alpha =   0.42262284777475817     
 delta_qm =   0.844691E-03 delta_en =   0.123293E+01 tol =   0.100000E-04
 Iteration #         11
  pAp =    1.1005159470270916E-003  rzold =    4.3514546462330474E-004  alpha =   0.39540132589518279     
 delta_qm =   0.688956E-03 delta_en =   0.820214E+00 tol =   0.100000E-04
 Iteration #         12
  pAp =    6.8239829889675627E-004  rzold =    2.9079960731604815E-004  alpha =   0.42614351147443996     
 delta_qm =   0.503504E-03 delta_en =   0.438077E+00 tol =   0.100000E-04
 Iteration #         13
  pAp =    4.5958246096838449E-004  rzold =    2.6178946633834664E-004  alpha =   0.56962458007368477     
 delta_qm =   0.321798E-03 delta_en =   0.178941E+00 tol =   0.100000E-04
 Iteration #         14
  pAp =    5.7790401229095771E-004  rzold =    2.1074581150947984E-004  alpha =   0.36467269135929709     
 delta_qm =   0.326714E-03 delta_en =   0.184451E+00 tol =   0.100000E-04
 Iteration #         15
  pAp =    5.3831206967310955E-003  rzold =    2.7231338411775490E-004  alpha =    5.0586527677731141E-002
 delta_qm =   0.344837E-03 delta_en =   0.205481E+00 tol =   0.100000E-04
 Iteration #         16
  pAp =    2.1964295398453385E-004  rzold =    8.1550427206011564E-005  alpha =   0.37128633414643447     
 delta_qm =   0.297643E-03 delta_en =   0.153086E+00 tol =   0.100000E-04
 Iteration #         17
  pAp =    1.4472496975279553E-004  rzold =    5.1011569445787538E-005  alpha =   0.35247248303399414     
 delta_qm =   0.214838E-03 delta_en =   0.797561E-01 tol =   0.100000E-04
 Iteration #         18
  pAp =    1.2112585154837121E-004  rzold =    4.1879189076419442E-005  alpha =   0.34574938826906926     
 delta_qm =   0.130195E-03 delta_en =   0.292910E-01 tol =   0.100000E-04
 Iteration #         19
  pAp =    6.7384606260561411E-005  rzold =    2.6838227634428711E-005  alpha =   0.39828425398304185     
 delta_qm =   0.102815E-03 delta_en =   0.182664E-01 tol =   0.100000E-04
 Iteration #         20
  pAp =    1.3355127007488146E-005  rzold =    7.3618875190529691E-006  alpha =   0.55124054716403659     
 delta_qm =   0.736703E-04 delta_en =   0.937840E-02 tol =   0.100000E-04
 Iteration #         21
  pAp =    7.1993364974586840E-006  rzold =    3.1397036476965999E-006  alpha =   0.43611013998371845     
 delta_qm =   0.502612E-04 delta_en =   0.436525E-02 tol =   0.100000E-04
 Iteration #         22
  pAp =    2.3398304201958593E-006  rzold =    1.1784021458932039E-006  alpha =   0.50362715849918893     
 delta_qm =   0.282250E-04 delta_en =   0.137661E-02 tol =   0.100000E-04
 Iteration #         23
  pAp =    5.9586924855545692E-007  rzold =    3.6710144023373216E-007  alpha =   0.61607716982153748     
 delta_qm =   0.138551E-04 delta_en =   0.331711E-03 tol =   0.100000E-04
 Iteration #         24
  pAp =    3.2172500471902016E-007  rzold =    1.6564835219878490E-007  alpha =   0.51487559179136411     
 delta_qm =   0.803346E-05 delta_en =   0.111519E-03 tol =   0.100000E-04
 Iteration #         25
  pAp =    8.6444374655267662E-008  rzold =    3.9761906106479578E-008  alpha =   0.45997100754151393     
 delta_qm =   0.549937E-05 delta_en =   0.522600E-04 tol =   0.100000E-04
 Iteration #         26
  pAp =    8.2104960730740135E-008  rzold =    1.9315714309655811E-008  alpha =   0.23525636134217159     
 delta_qm =   0.433086E-05 delta_en =   0.324110E-04 tol =   0.100000E-04
 Iteration #         27
  pAp =    4.1340580691400014E-007  rzold =    2.2991610039650959E-008  alpha =    5.5615111483989996E-002
 delta_qm =   0.380268E-05 delta_en =   0.249875E-04 tol =   0.100000E-04
 Iteration #         28
  pAp =    2.4265484380490120E-008  rzold =    7.6641517934374654E-009  alpha =   0.31584581924107724     
 delta_qm =   0.229190E-05 delta_en =   0.907685E-05 tol =   0.100000E-04
 Charges are converged, EXIT

%%%% DENSITY %%%%%%%%%%%%%%%%%%%%%%%%%%%%%%%%%%%%%%%%%%%%%%%%%%%%%%%%%%%%%%%%%%%
 density label              = velectrostatic                                                                  
 integral of density        =     -181.8252156    

%%%% CHARGES %%%%%%%%%%%%%%%%%%%%%%%%%%%%%%%%%%%%%%%%%%%%%%%%%%%%%%%%%%%%%%%%%%%
 total number of charges    =         35
 total charge               =      0.0000000

%%%% DENSITY %%%%%%%%%%%%%%%%%%%%%%%%%%%%%%%%%%%%%%%%%%%%%%%%%%%%%%%%%%%%%%%%%%%
 density label              = vsoftcavity                                                                     
 integral of density        =      49.33578793    

%%%% DENSITY %%%%%%%%%%%%%%%%%%%%%%%%%%%%%%%%%%%%%%%%%%%%%%%%%%%%%%%%%%%%%%%%%%%
 density label              = dvtot                                                                           
 integral of density        =      1773.758282    

%%%% ELECTRONS %%%%%%%%%%%%%%%%%%%%%%%%%%%%%%%%%%%%%%%%%%%%%%%%%%%%%%%%%%%%%%%%%
 number of electrons        =         24
 total electronic charge    =     24.0000000

%%%% ELECTRONS %%%%%%%%%%%%%%%%%%%%%%%%%%%%%%%%%%%%%%%%%%%%%%%%%%%%%%%%%%%%%%%%%
 number of electrons        =         24
 total electronic charge    =     24.0000000

%%%% BOUNDARY %%%%%%%%%%%%%%%%%%%%%%%%%%%%%%%%%%%%%%%%%%%%%%%%%%%%%%%%%%%%%%%%%%
 boundary label             = solvent              
 boundary mode              = full                 
 boundary is built as a function of a smooth density
 function type              =  2 
 using the modified SCCS function with parameters 
 rhomax                     =      0.0050000 
 rhomin                     =      0.0001000 
 volume of the QM region    =    712.9474880 
 surface of the QM region   =    412.3918464 

%%%% DIELECTRIC %%%%%%%%%%%%%%%%%%%%%%%%%%%%%%%%%%%%%%%%%%%%%%%%%%%%%%%%%%%%%%%%%
 dielectric build on homogeneous background
 environment bulk permitt.  =    100.0000000 
 dielectric flags
 need gradient              =  F 
 need factor depend. sqrt   =  T 
 total dielectric charge    =      0.0343491

%%%% DENSITY %%%%%%%%%%%%%%%%%%%%%%%%%%%%%%%%%%%%%%%%%%%%%%%%%%%%%%%%%%%%%%%%%%%
 density label              = vreference                                                                      
 integral of density        =     -1906.247710    

%%%% COMPUTE ELECTROSTATIC POTENTIAL %%%%%%%%%%%%%%%%%%%%%%%%%%%%%%%%%%%%%%%%%%%
 Warning: bad guess with residual norm =   0.144863E+05, reset to no guess
 Iteration #          1
  pAp =    108.85877025041658       rzold =    93.665541502590827       alpha =   0.86043174369069619     
 delta_qm =   0.793385E-01 delta_en =   0.108771E+05 tol =   0.100000E-04
 Iteration #          2
  pAp =    7743.8984185993004       rzold =    308.46060540494290       alpha =    3.9832728779613379E-002
 delta_qm =   0.981547E-02 delta_en =   0.166481E+03 tol =   0.100000E-04
 Iteration #          3
  pAp =    16.331725907250497       rzold =    1.7395933087870452       alpha =   0.10651619545088922     
 delta_qm =   0.671661E-02 delta_en =   0.779551E+02 tol =   0.100000E-04
 Iteration #          4
  pAp =   0.85527075086263737       rzold =   0.13880730761777019       alpha =   0.16229633420500736     
 delta_qm =   0.601177E-02 delta_en =   0.624523E+02 tol =   0.100000E-04
 Iteration #          5
  pAp =    7.5674043943985858E-002  rzold =    1.8191581147529095E-002  alpha =   0.24039393429264272     
 delta_qm =   0.476767E-02 delta_en =   0.392787E+02 tol =   0.100000E-04
 Iteration #          6
  pAp =    4.1842081564897840E-002  rzold =    1.0544078841672692E-002  alpha =   0.25199699554427357     
 delta_qm =   0.307760E-02 delta_en =   0.163670E+02 tol =   0.100000E-04
 Iteration #          7
  pAp =    2.5237767939852041E-002  rzold =    8.5142643842176843E-003  alpha =   0.33736202046509506     
 delta_qm =   0.213742E-02 delta_en =   0.789446E+01 tol =   0.100000E-04
 Iteration #          8
  pAp =    1.0958073979038231E-002  rzold =    4.6930640789925879E-003  alpha =   0.42827453875288485     
 delta_qm =   0.124992E-02 delta_en =   0.269966E+01 tol =   0.100000E-04
 Iteration #          9
  pAp =    6.7084561222524831E-003  rzold =    3.3620630726542470E-003  alpha =   0.50116793065128895     
 delta_qm =   0.803624E-03 delta_en =   0.111596E+01 tol =   0.100000E-04
 Iteration #         10
  pAp =    3.9068328672511058E-003  rzold =    1.6468520652326364E-003  alpha =   0.42153123033168838     
 delta_qm =   0.823903E-03 delta_en =   0.117299E+01 tol =   0.100000E-04
 Iteration #         11
  pAp =    1.1348923391521133E-003  rzold =    4.3674635185441551E-004  alpha =   0.38483505156155345     
 delta_qm =   0.671094E-03 delta_en =   0.778234E+00 tol =   0.100000E-04
 Iteration #         12
  pAp =    6.7127677186087031E-004  rzold =    2.8967723328057418E-004  alpha =   0.43153173984785675     
 delta_qm =   0.486597E-03 delta_en =   0.409150E+00 tol =   0.100000E-04
 Iteration #         13
  pAp =    4.4201984111455950E-004  rzold =    2.5466808980494429E-004  alpha =   0.57614628601918638     
 delta_qm =   0.309714E-03 delta_en =   0.165754E+00 tol =   0.100000E-04
 Iteration #         14
  pAp =    6.1973523758855782E-004  rzold =    2.0809479662269907E-004  alpha =   0.33578015901179592     
 delta_qm =   0.334159E-03 delta_en =   0.192953E+00 tol =   0.100000E-04
 Iteration #         15
  pAp =    7.6001424102356959E-003  rzold =    3.8165754968518055E-004  alpha =    5.0217157664200214E-002
 delta_qm =   0.334030E-03 delta_en =   0.192803E+00 tol =   0.100000E-04
 Iteration #         16
  pAp =    1.6578869907287169E-004  rzold =    7.2036191824419277E-005  alpha =   0.43450604430375611     
 delta_qm =   0.284887E-03 delta_en =   0.140245E+00 tol =   0.100000E-04
 Iteration #         17
  pAp =    9.0624740916312886E-005  rzold =    4.3173088618314355E-005  alpha =   0.47639406393649608     
 delta_qm =   0.181020E-03 delta_en =   0.566234E-01 tol =   0.100000E-04
 Iteration #         18
  pAp =    9.1292239626150431E-005  rzold =    3.3174930606947017E-005  alpha =   0.36339266889279098     
 delta_qm =   0.115200E-03 delta_en =   0.229323E-01 tol =   0.100000E-04
 Iteration #         19
  pAp =    1.0503346988398275E-004  rzold =    2.9325368490774137E-005  alpha =   0.27920022563442087     
 delta_qm =   0.988934E-04 delta_en =   0.168997E-01 tol =   0.100000E-04
 Iteration #         20
  pAp =    1.3325293585636987E-005  rzold =    7.0655909344955737E-006  alpha =   0.53023904419722534     
 delta_qm =   0.711253E-04 delta_en =   0.874162E-02 tol =   0.100000E-04
 Iteration #         21
  pAp =    6.7305647723904188E-006  rzold =    2.9529956416668895E-006  alpha =   0.43874410863415664     
 delta_qm =   0.476221E-04 delta_en =   0.391888E-02 tol =   0.100000E-04
 Iteration #         22
  pAp =    2.1554443844857164E-006  rzold =    1.0952388168370501E-006  alpha =   0.50812668826914376     
 delta_qm =   0.261332E-04 delta_en =   0.118013E-02 tol =   0.100000E-04
 Iteration #         23
  pAp =    5.5676038102584199E-007  rzold =    3.4196328364321921E-007  alpha =   0.61420189959124805     
 delta_qm =   0.129379E-04 delta_en =   0.289247E-03 tol =   0.100000E-04
 Iteration #         24
  pAp =    2.9331038161835065E-007  rzold =    1.4935629240973536E-007  alpha =   0.50920902146612268     
 delta_qm =   0.773588E-05 delta_en =   0.103410E-03 tol =   0.100000E-04
 Iteration #         25
  pAp =    8.2861391870329641E-008  rzold =    3.6940448700887870E-008  alpha =   0.44581013988633250     
 delta_qm =   0.534670E-05 delta_en =   0.493987E-04 tol =   0.100000E-04
 Iteration #         26
  pAp =    1.0540631329755384E-007  rzold =    1.9818419606418370E-008  alpha =   0.18801928448510014     
 delta_qm =   0.433780E-05 delta_en =   0.325149E-04 tol =   0.100000E-04
 Iteration #         27
  pAp =    5.4719525087130029E-007  rzold =    3.3711274668805944E-008  alpha =    6.1607396290679427E-002
 delta_qm =   0.359553E-05 delta_en =   0.223393E-04 tol =   0.100000E-04
 Iteration #         28
  pAp =    1.1723515274168894E-008  rzold =    5.8381416558592176E-009  alpha =   0.49798558873572130     
 delta_qm =   0.183832E-05 delta_en =   0.583965E-05 tol =   0.100000E-04
 Charges are converged, EXIT

%%%% DENSITY %%%%%%%%%%%%%%%%%%%%%%%%%%%%%%%%%%%%%%%%%%%%%%%%%%%%%%%%%%%%%%%%%%%
 density label              = velectrostatic                                                                  
 integral of density        =     -182.1305630    

%%%% CHARGES %%%%%%%%%%%%%%%%%%%%%%%%%%%%%%%%%%%%%%%%%%%%%%%%%%%%%%%%%%%%%%%%%%%
 total number of charges    =         35
 total charge               =      0.0000000

%%%% DENSITY %%%%%%%%%%%%%%%%%%%%%%%%%%%%%%%%%%%%%%%%%%%%%%%%%%%%%%%%%%%%%%%%%%%
 density label              = vsoftcavity                                                                     
 integral of density        =      49.81928722    

%%%% DENSITY %%%%%%%%%%%%%%%%%%%%%%%%%%%%%%%%%%%%%%%%%%%%%%%%%%%%%%%%%%%%%%%%%%%
 density label              = dvtot                                                                           
 integral of density        =      1773.936434    

%%%% ELECTRONS %%%%%%%%%%%%%%%%%%%%%%%%%%%%%%%%%%%%%%%%%%%%%%%%%%%%%%%%%%%%%%%%%
 number of electrons        =         24
 total electronic charge    =     24.0000000

%%%% ELECTRONS %%%%%%%%%%%%%%%%%%%%%%%%%%%%%%%%%%%%%%%%%%%%%%%%%%%%%%%%%%%%%%%%%
 number of electrons        =         24
 total electronic charge    =     24.0000000

%%%% BOUNDARY %%%%%%%%%%%%%%%%%%%%%%%%%%%%%%%%%%%%%%%%%%%%%%%%%%%%%%%%%%%%%%%%%%
 boundary label             = solvent              
 boundary mode              = full                 
 boundary is built as a function of a smooth density
 function type              =  2 
 using the modified SCCS function with parameters 
 rhomax                     =      0.0050000 
 rhomin                     =      0.0001000 
 volume of the QM region    =    713.5669126 
 surface of the QM region   =    412.8046126 

%%%% DIELECTRIC %%%%%%%%%%%%%%%%%%%%%%%%%%%%%%%%%%%%%%%%%%%%%%%%%%%%%%%%%%%%%%%%%
 dielectric build on homogeneous background
 environment bulk permitt.  =    100.0000000 
 dielectric flags
 need gradient              =  F 
 need factor depend. sqrt   =  T 
 total dielectric charge    =      0.0350951

%%%% DENSITY %%%%%%%%%%%%%%%%%%%%%%%%%%%%%%%%%%%%%%%%%%%%%%%%%%%%%%%%%%%%%%%%%%%
 density label              = vreference                                                                      
 integral of density        =     -1906.247710    

%%%% COMPUTE ELECTROSTATIC POTENTIAL %%%%%%%%%%%%%%%%%%%%%%%%%%%%%%%%%%%%%%%%%%%
 Warning: bad guess with residual norm =   0.148244E+05, reset to no guess
 Iteration #          1
  pAp =    108.99713471831340       rzold =    93.698582451293490       alpha =   0.85964261990412216     
 delta_qm =   0.801799E-01 delta_en =   0.111090E+05 tol =   0.100000E-04
 Iteration #          2
  pAp =    7790.5241462712411       rzold =    310.25316548867414       alpha =    3.9824427684646849E-002
 delta_qm =   0.991536E-02 delta_en =   0.169887E+03 tol =   0.100000E-04
 Iteration #          3
  pAp =    16.837789365271671       rzold =    1.7916609525819078       alpha =   0.10640713657323983     
 delta_qm =   0.671948E-02 delta_en =   0.780216E+02 tol =   0.100000E-04
 Iteration #          4
  pAp =   0.88902335691538126       rzold =   0.14188945832608679       alpha =   0.15960149665628195     
 delta_qm =   0.606726E-02 delta_en =   0.636106E+02 tol =   0.100000E-04
 Iteration #          5
  pAp =    7.5532761176729843E-002  rzold =    1.8134471700554256E-002  alpha =   0.24008749869640844     
 delta_qm =   0.485554E-02 delta_en =   0.407398E+02 tol =   0.100000E-04
 Iteration #          6
  pAp =    4.1594553614183141E-002  rzold =    1.0454626190464836E-002  alpha =   0.25134603648925707     
 delta_qm =   0.316596E-02 delta_en =   0.173203E+02 tol =   0.100000E-04
 Iteration #          7
  pAp =    2.4783972083865350E-002  rzold =    8.4074713498268165E-003  alpha =   0.33923018156158175     
 delta_qm =   0.221051E-02 delta_en =   0.844363E+01 tol =   0.100000E-04
 Iteration #          8
  pAp =    1.0985644424101926E-002  rzold =    4.7235267852332521E-003  alpha =   0.42997266276615348     
 delta_qm =   0.129501E-02 delta_en =   0.289796E+01 tol =   0.100000E-04
 Iteration #          9
  pAp =    6.7181949918848575E-003  rzold =    3.4304083841020083E-003  alpha =   0.51061459041390111     
 delta_qm =   0.814344E-03 delta_en =   0.114593E+01 tol =   0.100000E-04
 Iteration #         10
  pAp =    4.0862817792784506E-003  rzold =    1.7132637494420469E-003  alpha =   0.41927205268369239     
 delta_qm =   0.833678E-03 delta_en =   0.120099E+01 tol =   0.100000E-04
 Iteration #         11
  pAp =    1.2732471854350338E-003  rzold =    4.6100893570421290E-004  alpha =   0.36207339861246091     
 delta_qm =   0.685780E-03 delta_en =   0.812668E+00 tol =   0.100000E-04
 Iteration #         12
  pAp =    6.7959417899906107E-004  rzold =    2.9233878601296902E-004  alpha =   0.43016670102080573     
 delta_qm =   0.498024E-03 delta_en =   0.428592E+00 tol =   0.100000E-04
 Iteration #         13
  pAp =    4.0808409579982740E-004  rzold =    2.4592409431149314E-004  alpha =   0.60263092054467948     
 delta_qm =   0.319523E-03 delta_en =   0.176420E+00 tol =   0.100000E-04
 Iteration #         14
  pAp =    5.4898140525412933E-004  rzold =    2.1008293456508572E-004  alpha =   0.38267768735780056     
 delta_qm =   0.326961E-03 delta_en =   0.184729E+00 tol =   0.100000E-04
 Iteration #         15
  pAp =    4.7046934067512761E-003  rzold =    2.4259847506075003E-004  alpha =    5.1565203954123576E-002
 delta_qm =   0.340744E-03 delta_en =   0.200632E+00 tol =   0.100000E-04
 Iteration #         16
  pAp =    2.2480867612192473E-004  rzold =    8.3998549745088012E-005  alpha =   0.37364460835813779     
 delta_qm =   0.291351E-03 delta_en =   0.146682E+00 tol =   0.100000E-04
 Iteration #         17
  pAp =    8.8376761317821037E-005  rzold =    4.2864210187865297E-005  alpha =   0.48501675721875309     
 delta_qm =   0.184660E-03 delta_en =   0.589235E-01 tol =   0.100000E-04
 Iteration #         18
  pAp =    8.2847429337251421E-005  rzold =    3.1712178946329919E-005  alpha =   0.38277806807061532     
 delta_qm =   0.116343E-03 delta_en =   0.233897E-01 tol =   0.100000E-04
 Iteration #         19
  pAp =    1.1056083145784925E-004  rzold =    2.9542085571302945E-005  alpha =   0.26720209301759562     
 delta_qm =   0.996272E-04 delta_en =   0.171514E-01 tol =   0.100000E-04
 Iteration #         20
  pAp =    1.4154557658441738E-005  rzold =    7.3502382570578580E-006  alpha =   0.51928420756223326     
 delta_qm =   0.723824E-04 delta_en =   0.905335E-02 tol =   0.100000E-04
 Iteration #         21
  pAp =    7.0247418181461053E-006  rzold =    3.0669442960433566E-006  alpha =   0.43659174606544499     
 delta_qm =   0.490125E-04 delta_en =   0.415104E-02 tol =   0.100000E-04
 Iteration #         22
  pAp =    2.1833000671154314E-006  rzold =    1.1073663340876150E-006  alpha =   0.50719841526440457     
 delta_qm =   0.272743E-04 delta_en =   0.128544E-02 tol =   0.100000E-04
 Iteration #         23
  pAp =    5.6261037138425221E-007  rzold =    3.4764764813488900E-007  alpha =   0.61791901788005299     
 delta_qm =   0.134972E-04 delta_en =   0.314798E-03 tol =   0.100000E-04
 Iteration #         24
  pAp =    2.9809119764449524E-007  rzold =    1.5457526483060416E-007  alpha =   0.51855024922591386     
 delta_qm =   0.794973E-05 delta_en =   0.109207E-03 tol =   0.100000E-04
 Iteration #         25
  pAp =    7.2172397258064367E-008  rzold =    3.6685414147576976E-008  alpha =   0.50830255805972746     
 delta_qm =   0.523272E-05 delta_en =   0.473150E-04 tol =   0.100000E-04
 Iteration #         26
  pAp =    7.1802079691764772E-008  rzold =    1.4206658369530524E-008  alpha =   0.19785859170817213     
 delta_qm =   0.435307E-05 delta_en =   0.327443E-04 tol =   0.100000E-04
 Iteration #         27
  pAp =    4.1884078916001200E-007  rzold =    2.8636713742853739E-008  alpha =    6.8371358482741992E-002
 delta_qm =   0.351900E-05 delta_en =   0.213984E-04 tol =   0.100000E-04
 Iteration #         28
  pAp =    2.1621545191884611E-008  rzold =    6.8673617357138826E-009  alpha =   0.31761660301186362     
 delta_qm =   0.210875E-05 delta_en =   0.768413E-05 tol =   0.100000E-04
 Charges are converged, EXIT

%%%% DENSITY %%%%%%%%%%%%%%%%%%%%%%%%%%%%%%%%%%%%%%%%%%%%%%%%%%%%%%%%%%%%%%%%%%%
 density label              = velectrostatic                                                                  
 integral of density        =     -182.1070813    

%%%% CHARGES %%%%%%%%%%%%%%%%%%%%%%%%%%%%%%%%%%%%%%%%%%%%%%%%%%%%%%%%%%%%%%%%%%%
 total number of charges    =         35
 total charge               =      0.0000000

%%%% DENSITY %%%%%%%%%%%%%%%%%%%%%%%%%%%%%%%%%%%%%%%%%%%%%%%%%%%%%%%%%%%%%%%%%%%
 density label              = vsoftcavity                                                                     
 integral of density        =      48.92607107    

%%%% DENSITY %%%%%%%%%%%%%%%%%%%%%%%%%%%%%%%%%%%%%%%%%%%%%%%%%%%%%%%%%%%%%%%%%%%
 density label              = dvtot                                                                           
 integral of density        =      1773.066699    

%%%% ELECTRONS %%%%%%%%%%%%%%%%%%%%%%%%%%%%%%%%%%%%%%%%%%%%%%%%%%%%%%%%%%%%%%%%%
 number of electrons        =         24
 total electronic charge    =     24.0000000

%%%% ELECTRONS %%%%%%%%%%%%%%%%%%%%%%%%%%%%%%%%%%%%%%%%%%%%%%%%%%%%%%%%%%%%%%%%%
 number of electrons        =         24
 total electronic charge    =     24.0000000

%%%% BOUNDARY %%%%%%%%%%%%%%%%%%%%%%%%%%%%%%%%%%%%%%%%%%%%%%%%%%%%%%%%%%%%%%%%%%
 boundary label             = solvent              
 boundary mode              = full                 
 boundary is built as a function of a smooth density
 function type              =  2 
 using the modified SCCS function with parameters 
 rhomax                     =      0.0050000 
 rhomin                     =      0.0001000 
 volume of the QM region    =    713.1196126 
 surface of the QM region   =    412.6896789 

%%%% DIELECTRIC %%%%%%%%%%%%%%%%%%%%%%%%%%%%%%%%%%%%%%%%%%%%%%%%%%%%%%%%%%%%%%%%%
 dielectric build on homogeneous background
 environment bulk permitt.  =    100.0000000 
 dielectric flags
 need gradient              =  F 
 need factor depend. sqrt   =  T 
 total dielectric charge    =      0.0351802

%%%% DENSITY %%%%%%%%%%%%%%%%%%%%%%%%%%%%%%%%%%%%%%%%%%%%%%%%%%%%%%%%%%%%%%%%%%%
 density label              = vreference                                                                      
 integral of density        =     -1906.247710    

%%%% COMPUTE ELECTROSTATIC POTENTIAL %%%%%%%%%%%%%%%%%%%%%%%%%%%%%%%%%%%%%%%%%%%
 Warning: bad guess with residual norm =   0.148388E+05, reset to no guess
 Iteration #          1
  pAp =    109.04255913657492       rzold =    93.678608782681991       alpha =   0.85910134102181412     
 delta_qm =   0.801730E-01 delta_en =   0.111071E+05 tol =   0.100000E-04
 Iteration #          2
  pAp =    7806.4867361316092       rzold =    311.04216299320188       alpha =    3.9844064751121872E-002
 delta_qm =   0.100274E-01 delta_en =   0.173747E+03 tol =   0.100000E-04
 Iteration #          3
  pAp =    17.346132881568430       rzold =    1.8490577163939621       alpha =   0.10659769119829152     
 delta_qm =   0.641008E-02 delta_en =   0.710020E+02 tol =   0.100000E-04
 Iteration #          4
  pAp =   0.93324275134354817       rzold =   0.14669981671042698       alpha =   0.15719363102390002     
 delta_qm =   0.581116E-02 delta_en =   0.583539E+02 tol =   0.100000E-04
 Iteration #          5
  pAp =    7.3729221116248939E-002  rzold =    1.7906659280337477E-002  alpha =   0.24287058793289068     
 delta_qm =   0.466531E-02 delta_en =   0.376101E+02 tol =   0.100000E-04
 Iteration #          6
  pAp =    4.1313055394888082E-002  rzold =    1.0378034353853632E-002  alpha =   0.25120471615221590     
 delta_qm =   0.305180E-02 delta_en =   0.160937E+02 tol =   0.100000E-04
 Iteration #          7
  pAp =    2.4928608886039004E-002  rzold =    8.3268455065395319E-003  alpha =   0.33402768460148174     
 delta_qm =   0.213040E-02 delta_en =   0.784273E+01 tol =   0.100000E-04
 Iteration #          8
  pAp =    1.0795091434937312E-002  rzold =    4.6267681026442636E-003  alpha =   0.42859925092159551     
 delta_qm =   0.125586E-02 delta_en =   0.272539E+01 tol =   0.100000E-04
 Iteration #          9
  pAp =    6.4233000126060757E-003  rzold =    3.3065374411265468E-003  alpha =   0.51477238096263400     
 delta_qm =   0.795389E-03 delta_en =   0.109321E+01 tol =   0.100000E-04
 Iteration #         10
  pAp =    3.9845905244840227E-003  rzold =    1.6682358298861473E-003  alpha =   0.41867183582237033     
 delta_qm =   0.811152E-03 delta_en =   0.113697E+01 tol =   0.100000E-04
 Iteration #         11
  pAp =    1.2252847208365316E-003  rzold =    4.5049703097014551E-004  alpha =   0.36766722322512946     
 delta_qm =   0.665797E-03 delta_en =   0.765998E+00 tol =   0.100000E-04
 Iteration #         12
  pAp =    6.6954118837972150E-004  rzold =    2.8790322701868152E-004  alpha =   0.43000077070001103     
 delta_qm =   0.486010E-03 delta_en =   0.408163E+00 tol =   0.100000E-04
 Iteration #         13
  pAp =    4.1320476711860239E-004  rzold =    2.4497493140471411E-004  alpha =   0.59286569492650321     
 delta_qm =   0.316296E-03 delta_en =   0.172874E+00 tol =   0.100000E-04
 Iteration #         14
  pAp =    6.6806660978209226E-004  rzold =    2.1206759431258908E-004  alpha =   0.31743480546312675     
 delta_qm =   0.298678E-03 delta_en =   0.154152E+00 tol =   0.100000E-04
 Iteration #         15
  pAp =    8.8951955942377769E-003  rzold =    4.6277657242220271E-004  alpha =    5.2025452112822002E-002
 delta_qm =   0.328002E-03 delta_en =   0.185908E+00 tol =   0.100000E-04
 Iteration #         16
  pAp =    1.5807675932420106E-004  rzold =    7.0404789837631482E-005  alpha =   0.44538356010473151     
 delta_qm =   0.279889E-03 delta_en =   0.135368E+00 tol =   0.100000E-04
 Iteration #         17
  pAp =    7.8974435708879749E-005  rzold =    4.1273828509367716E-005  alpha =   0.52262264540279535     
 delta_qm =   0.172131E-03 delta_en =   0.511990E-01 tol =   0.100000E-04
 Iteration #         18
  pAp =    4.1252290648210297E-005  rzold =    2.5697567157743711E-005  alpha =   0.62293673282015871     
 delta_qm =   0.104768E-03 delta_en =   0.189669E-01 tol =   0.100000E-04
 Iteration #         19
  pAp =    2.8203188380878819E-005  rzold =    1.1176571826609192E-005  alpha =   0.39628752875992834     
 delta_qm =   0.865435E-04 delta_en =   0.129423E-01 tol =   0.100000E-04
 Iteration #         20
  pAp =    3.2024980859119495E-005  rzold =    8.0904755744056436E-006  alpha =   0.25263014551035351     
 delta_qm =   0.685014E-04 delta_en =   0.810855E-02 tol =   0.100000E-04
 Iteration #         21
  pAp =    9.6796477232539354E-006  rzold =    3.3968690816002978E-006  alpha =   0.35092899852541304     
 delta_qm =   0.469986E-04 delta_en =   0.381693E-02 tol =   0.100000E-04
 Iteration #         22
  pAp =    2.1655424941556216E-006  rzold =    1.0880073609931068E-006  alpha =   0.50241792249721595     
 delta_qm =   0.259539E-04 delta_en =   0.116399E-02 tol =   0.100000E-04
 Iteration #         23
  pAp =    5.3922061596333056E-007  rzold =    3.3517371553159950E-007  alpha =   0.62158920784733651     
 delta_qm =   0.129547E-04 delta_en =   0.290001E-03 tol =   0.100000E-04
 Iteration #         24
  pAp =    2.8404546102067041E-007  rzold =    1.4707990301116586E-007  alpha =   0.51780409545239181     
 delta_qm =   0.779648E-05 delta_en =   0.105037E-03 tol =   0.100000E-04
 Iteration #         25
  pAp =    6.9416842543174450E-008  rzold =    3.5392380852491346E-008  alpha =   0.50985293418493827     
 delta_qm =   0.514902E-05 delta_en =   0.458135E-04 tol =   0.100000E-04
 Iteration #         26
  pAp =    2.9808208659357801E-007  rzold =    2.1204636761748363E-008  alpha =    7.1136903945053107E-002
 delta_qm =   0.471226E-05 delta_en =   0.383709E-04 tol =   0.100000E-04
 Iteration #         27
  pAp =    9.5992892252667701E-008  rzold =    1.7409956146152383E-008  alpha =   0.18136713810358757     
 delta_qm =   0.330329E-05 delta_en =   0.188555E-04 tol =   0.100000E-04
 Iteration #         28
  pAp =    3.7904330095368517E-008  rzold =    8.2021431845277775E-009  alpha =   0.21639066470482188     
 delta_qm =   0.237399E-05 delta_en =   0.973870E-05 tol =   0.100000E-04
 Charges are converged, EXIT

%%%% DENSITY %%%%%%%%%%%%%%%%%%%%%%%%%%%%%%%%%%%%%%%%%%%%%%%%%%%%%%%%%%%%%%%%%%%
 density label              = velectrostatic                                                                  
 integral of density        =     -181.9112128    

%%%% CHARGES %%%%%%%%%%%%%%%%%%%%%%%%%%%%%%%%%%%%%%%%%%%%%%%%%%%%%%%%%%%%%%%%%%%
 total number of charges    =         35
 total charge               =      0.0000000

%%%% DENSITY %%%%%%%%%%%%%%%%%%%%%%%%%%%%%%%%%%%%%%%%%%%%%%%%%%%%%%%%%%%%%%%%%%%
 density label              = vsoftcavity                                                                     
 integral of density        =      49.46096429    

%%%% DENSITY %%%%%%%%%%%%%%%%%%%%%%%%%%%%%%%%%%%%%%%%%%%%%%%%%%%%%%%%%%%%%%%%%%%
 density label              = dvtot                                                                           
 integral of density        =      1773.797461    

%%%% ELECTRONS %%%%%%%%%%%%%%%%%%%%%%%%%%%%%%%%%%%%%%%%%%%%%%%%%%%%%%%%%%%%%%%%%
 number of electrons        =         24
 total electronic charge    =     24.0000000

%%%% ELECTRONS %%%%%%%%%%%%%%%%%%%%%%%%%%%%%%%%%%%%%%%%%%%%%%%%%%%%%%%%%%%%%%%%%
 number of electrons        =         24
 total electronic charge    =     24.0000000

%%%% BOUNDARY %%%%%%%%%%%%%%%%%%%%%%%%%%%%%%%%%%%%%%%%%%%%%%%%%%%%%%%%%%%%%%%%%%
 boundary label             = solvent              
 boundary mode              = full                 
 boundary is built as a function of a smooth density
 function type              =  2 
 using the modified SCCS function with parameters 
 rhomax                     =      0.0050000 
 rhomin                     =      0.0001000 
 volume of the QM region    =    713.1196126 
 surface of the QM region   =    412.6896789 

%%%% DIELECTRIC %%%%%%%%%%%%%%%%%%%%%%%%%%%%%%%%%%%%%%%%%%%%%%%%%%%%%%%%%%%%%%%%%
 dielectric build on homogeneous background
 environment bulk permitt.  =    100.0000000 
 dielectric flags
 need gradient              =  F 
 need factor depend. sqrt   =  T 
 total dielectric charge    =      0.0351065

%%%% DENSITY %%%%%%%%%%%%%%%%%%%%%%%%%%%%%%%%%%%%%%%%%%%%%%%%%%%%%%%%%%%%%%%%%%%
 density label              = dvtot                                                                           
 integral of density        =      1773.797461    

%%%% DENSITY %%%%%%%%%%%%%%%%%%%%%%%%%%%%%%%%%%%%%%%%%%%%%%%%%%%%%%%%%%%%%%%%%%%
 density label              = vreference                                                                      
 integral of density        =     -1906.247710    

%%%% DENSITY %%%%%%%%%%%%%%%%%%%%%%%%%%%%%%%%%%%%%%%%%%%%%%%%%%%%%%%%%%%%%%%%%%%
 density label              = velectrostatic                                                                  
 integral of density        =     -181.9112128    

%%%% CHARGES %%%%%%%%%%%%%%%%%%%%%%%%%%%%%%%%%%%%%%%%%%%%%%%%%%%%%%%%%%%%%%%%%%%
 total number of charges    =         34
 total charge               =     -1.0000000

%%%% DENSITY %%%%%%%%%%%%%%%%%%%%%%%%%%%%%%%%%%%%%%%%%%%%%%%%%%%%%%%%%%%%%%%%%%%
 density label              = vsoftcavity                                                                     
 integral of density        =      49.46096429    
