
     Program PWSCF v.6.7MaX starts on 22Jan2021 at 11:28:50 

     This program is part of the open-source Quantum ESPRESSO suite
     for quantum simulation of materials; please cite
         "P. Giannozzi et al., J. Phys.:Condens. Matter 21 395502 (2009);
         "P. Giannozzi et al., J. Phys.:Condens. Matter 29 465901 (2017);
          URL http://www.quantum-espresso.org", 
     in publications or presentations arising from this work. More details at
     http://www.quantum-espresso.org/quote

     Parallel version (MPI), running on     1 processors

     MPI processes distributed on     1 nodes
     Reading input from neutral.in

     Current dimensions of program PWSCF are:
     Max number of different atomic species (ntypx) = 10
     Max number of k-points (npk) =  40000
     Max angular momentum in pseudopotentials (lmaxx) =  3
     file H.pbe-rrkjus.UPF: wavefunction(s)  1S renormalized
     file O.pbe-rrkjus.UPF: wavefunction(s)  2S renormalized

     gamma-point specific algorithms are used

     Subspace diagonalization in iterative solution of the eigenvalue problem:
     a serial algorithm will be used


     G-vector sticks info
     --------------------
     sticks:   dense  smooth     PW     G-vecs:    dense   smooth      PW
     Sum        9549    3809    949               701475   177509   22119



     bravais-lattice index     =            1
     lattice parameter (alat)  =      20.0000  a.u.
     unit-cell volume          =    8000.0000 (a.u.)^3
     number of atoms/cell      =            3
     number of atomic types    =            2
     number of electrons       =         8.00
     number of Kohn-Sham states=            4
     kinetic-energy cutoff     =      30.0000  Ry
     charge density cutoff     =     300.0000  Ry
     scf convergence threshold =      5.0E-03
     mixing beta               =       0.7000
     number of iterations used =            8  plain     mixing
     Exchange-correlation= SLA  PW   PBE  PBE
                           (   1   4   3   4   0   0   0)


     Environ Module
     ==============

     Plese cite
         O. Andreussi, I. Dabo and N. Marzari, J. Chem. Phys. 136, 064102 (2012)         
     in publications or presentations arising from this work.

     compensation onset threshold      =               0.1000E+03 
     static permittivity               =                   100.00 
     epsilon calculation mode          =               electronic 

     Electrostatic Setup
     -------------------
     electrostatic problem to solve    = generalized              
     numerical solver adopted          = cg                       
     type of auxiliary density adopted = none                     
     type of core tool for poisson     = fft                      


     Assuming isolated system, Martyna-Tuckerman method


     celldm(1)=  20.000000  celldm(2)=   0.000000  celldm(3)=   0.000000
     celldm(4)=   0.000000  celldm(5)=   0.000000  celldm(6)=   0.000000

     crystal axes: (cart. coord. in units of alat)
               a(1) = (   1.000000   0.000000   0.000000 )  
               a(2) = (   0.000000   1.000000   0.000000 )  
               a(3) = (   0.000000   0.000000   1.000000 )  

     reciprocal axes: (cart. coord. in units 2 pi/alat)
               b(1) = (  1.000000  0.000000  0.000000 )  
               b(2) = (  0.000000  1.000000  0.000000 )  
               b(3) = (  0.000000  0.000000  1.000000 )  


     PseudoPot. # 1 for H  read from file:
     /Users/gabrielmedrano/Desktop/q-e/Environ/tests/../..//pseudo/H.pbe-rrkjus.UPF
     MD5 check sum: 2d52a7f45632fd764c17cc6affed14c8
     Pseudo is Ultrasoft, Zval =  1.0
     Generated by new atomic code, or converted to UPF format
     Using radial grid of 1061 points,  2 beta functions with: 
                l(1) =   0
                l(2) =   0
     Q(r) pseudized with 0 coefficients 


     PseudoPot. # 2 for O  read from file:
     /Users/gabrielmedrano/Desktop/q-e/Environ/tests/../..//pseudo/O.pbe-rrkjus.UPF
     MD5 check sum: fadcf19ee70a498d3030e2e79cf929a4
     Pseudo is Ultrasoft, Zval =  6.0
     Generated by new atomic code, or converted to UPF format
     Using radial grid of 1269 points,  4 beta functions with: 
                l(1) =   0
                l(2) =   0
                l(3) =   1
                l(4) =   1
     Q(r) pseudized with 0 coefficients 


     atomic species   valence    mass     pseudopotential
        H              1.00     1.00000     H ( 1.00)
        O              6.00    16.00000     O ( 1.00)

     No symmetry found



   Cartesian axes

     site n.     atom                  positions (alat units)
         1           O   tau(   1) = (   0.5895000   0.6025000   0.5750000  )
         2           H   tau(   2) = (   0.6725000   0.5610000   0.5750000  )
         3           H   tau(   3) = (   0.5280000   0.5330000   0.5750000  )

     number of k points=     1
                       cart. coord. in units 2pi/alat
        k(    1) = (   0.0000000   0.0000000   0.0000000), wk =   2.0000000

     Dense  grid:   350738 G-vectors     FFT dimensions: ( 120, 120, 120)

     Smooth grid:    88755 G-vectors     FFT dimensions: (  72,  72,  72)

     Estimated max dynamical RAM per process >     530.91 MB

     Initial potential from superposition of free atoms

     starting charge    7.80759, renormalised to    8.00000

     negative rho (up, down):  7.936E-04 0.000E+00
     Starting wfcs are    6 randomized atomic wfcs

     total cpu time spent up to now is        5.4 secs

     Self-consistent Calculation

     iteration #  1     ecut=    30.00 Ry     beta= 0.70
     Davidson diagonalization with overlap
     ethr =  1.00E-02,  avg # of iterations =  2.0

     negative rho (up, down):  2.299E-04 0.000E+00

     add environment contribution to local potential
     polarization accuracy = 9.9E-06, # of iterations =  12

     total cpu time spent up to now is       11.0 secs

     total energy              =     -34.06392707 Ry
     estimated scf accuracy    <       0.67386235 Ry
     electrostatic embedding   =       0.00000000 Ry
     correction to one-el term =      -0.00000000 Ry

     iteration #  2     ecut=    30.00 Ry     beta= 0.70
     Davidson diagonalization with overlap
     ethr =  8.42E-03,  avg # of iterations =  2.0

     negative rho (up, down):  2.259E-03 0.000E+00

     add environment contribution to local potential
     polarization accuracy = 8.7E-06, # of iterations =  14

     total cpu time spent up to now is       17.2 secs

     total energy              =     -34.24330809 Ry
     estimated scf accuracy    <       0.27510761 Ry
     electrostatic embedding   =      -0.03990801 Ry
     correction to one-el term =      -0.44344388 Ry

     iteration #  3     ecut=    30.00 Ry     beta= 0.70
     Davidson diagonalization with overlap
     ethr =  3.44E-03,  avg # of iterations =  2.0

     negative rho (up, down):  5.031E-04 0.000E+00

     add environment contribution to local potential
     polarization accuracy = 4.1E-06, # of iterations =  14

     total cpu time spent up to now is       23.2 secs

     total energy              =     -34.29277890 Ry
     estimated scf accuracy    <       0.00611414 Ry
     electrostatic embedding   =      -0.02959966 Ry
     correction to one-el term =      -0.29387966 Ry

     iteration #  4     ecut=    30.00 Ry     beta= 0.70
     Davidson diagonalization with overlap
     ethr =  7.64E-05,  avg # of iterations =  3.0

     negative rho (up, down):  2.065E-04 0.000E+00

     the potential shift due to the Gaussian-smeared nuclei is    -0.0214 ev

     total cpu time spent up to now is       25.6 secs

     End of self-consistent calculation

          k = 0.0000 0.0000 0.0000 ( 11060 PWs)   bands (ev):

   -24.8719 -12.5863  -9.0868  -7.1307

     highest occupied level (ev):    -7.1307

!    total energy              =     -34.29501217 Ry
     estimated scf accuracy    <       0.00154313 Ry

     The total energy is the sum of the following terms:
     one-electron contribution =     -81.99127903 Ry
     hartree contribution      =      42.64121068 Ry
     xc contribution           =      -8.43205267 Ry
     ewald contribution        =      13.61041234 Ry
     electrostatic embedding   =      -0.03223977 Ry
     correction to one-el term =      -0.09106373 Ry

     convergence has been achieved in   4 iterations
 forces lc
       1    0.0474   -0.2448   -0.0001
       2    0.0377   -0.0375   -0.0000
       3   -0.0209   -0.0487   -0.0000
 forces mt   2.0000000000000000     
       1    0.0012   -0.0055   -0.0000
       2    0.0001   -0.0009   -0.0000
       3    0.0003   -0.0009   -0.0000

     Forces acting on atoms (cartesian axes, Ry/au):

     atom    1 type  2   force =     0.00167315   -0.00873303   -0.00003973
     atom    2 type  1   force =    -0.01433667    0.00171508    0.00001981
     atom    3 type  1   force =     0.01266353    0.00701796    0.00001992

     Total force =     0.022297     Total SCF correction =     0.044351
     SCF correction compared to forces is large: reduce conv_thr to get better values

     Writing output data file /Users/gabrielmedrano/Desktop/q-e/Environ/tests/../..//tempdir/pwscf.save/

     init_run     :      4.87s CPU      5.37s WALL (       1 calls)
     electrons    :     19.42s CPU     20.17s WALL (       1 calls)
     forces       :      0.82s CPU      0.90s WALL (       1 calls)

     Called by init_run:
     wfcinit      :      0.04s CPU      0.05s WALL (       1 calls)
     potinit      :      1.90s CPU      2.09s WALL (       1 calls)
     hinit0       :      2.06s CPU      2.17s WALL (       1 calls)

     Called by electrons:
     c_bands      :      0.31s CPU      0.32s WALL (       4 calls)
     sum_band     :      2.33s CPU      1.58s WALL (       4 calls)
     v_of_rho     :      3.18s CPU      3.70s WALL (       5 calls)
     newd         :      1.05s CPU      1.35s WALL (       5 calls)
     mix_rho      :      0.30s CPU      0.34s WALL (       4 calls)

     Called by c_bands:
     init_us_2    :      0.02s CPU      0.02s WALL (       9 calls)
     regterg      :      0.29s CPU      0.31s WALL (       4 calls)

     Called by *egterg:
     rdiaghg      :      0.00s CPU      0.00s WALL (      13 calls)
     h_psi        :      0.30s CPU      0.31s WALL (      14 calls)
     s_psi        :      0.01s CPU      0.01s WALL (      14 calls)
     g_psi        :      0.00s CPU      0.00s WALL (       9 calls)

     Called by h_psi:
     h_psi:calbec :      0.00s CPU      0.00s WALL (      14 calls)
     vloc_psi     :      0.27s CPU      0.28s WALL (      14 calls)
     add_vuspsi   :      0.02s CPU      0.03s WALL (      14 calls)

     General routines
     calbec       :      0.01s CPU      0.01s WALL (      22 calls)
     fft          :     10.40s CPU     10.88s WALL (     209 calls)
     ffts         :      0.06s CPU      0.06s WALL (       9 calls)
     fftw         :      0.24s CPU      0.24s WALL (      64 calls)
     interpolate  :      0.27s CPU      0.31s WALL (       5 calls)

     Parallel routines
     fft_scatt_xy :      0.88s CPU      0.89s WALL (     151 calls)
     fft_scatt_yz :      1.16s CPU      1.17s WALL (     151 calls)

     Environ routines
     calc_eelect  :      0.02s CPU      0.02s WALL (       8 calls)
     calc_velect  :      7.57s CPU      8.00s WALL (       6 calls)
     dielectric   :      0.28s CPU      0.32s WALL (       6 calls)
     calc_felect  :      0.24s CPU      0.25s WALL (       1 calls)

     PWSCF        :     25.18s CPU     26.59s WALL


   This run was terminated on:  11:29:17  22Jan2021            

=------------------------------------------------------------------------------=
   JOB DONE.
=------------------------------------------------------------------------------=
 Calling electrostatic_initbase now
 electrolyte_distance:    0.0000000000000000     
 sc_distance:    0.0000000000000000     
 velectrostatic started
 vreference created

%%%% IONS %%%%%%%%%%%%%%%%%%%%%%%%%%%%%%%%%%%%%%%%%%%%%%%%%%%%%%%%%%%%%%%%%%%%%%
 number of ions             =          3
 ionic center of charge     =      0.5921875     0.5886250     0.5750000
 total ionic charge         =     -8.0000000
 ionic dipole               =      0.0000000     0.0000000     0.0000000
 ionic quadrupole (pc)      =     -4.2453875    -2.0049500     0.0000000
 ionic quadrupole (gauss)   =     -5.2453875    -3.0049500    -1.0000000
 ion   1 type =  2 coordinates =     11.7900000    12.0500000    11.5000000
 ion   2 type =  1 coordinates =     13.4500000    11.2200000    11.5000000
 ion   3 type =  1 coordinates =     10.5600000    10.6600000    11.5000000

%%%% SYSTEM %%%%%%%%%%%%%%%%%%%%%%%%%%%%%%%%%%%%%%%%%%%%%%%%%%%%%%%%%%%%%%%%%%%%
 system is built from all present ionic types
 system defined dimension   =  0 
 system defined axis        =  3 
 system center              =      0.5921875     0.5886250     0.5750000 
 system width               =      0.0849363 

%%%% IONS %%%%%%%%%%%%%%%%%%%%%%%%%%%%%%%%%%%%%%%%%%%%%%%%%%%%%%%%%%%%%%%%%%%%%%
 number of ions             =          3
 ionic center of charge     =      0.5921875     0.5886250     0.5750000
 total ionic charge         =     -8.0000000
 ionic dipole               =      0.0000000     0.0000000     0.0000000
 ionic quadrupole (pc)      =     -4.2453875    -2.0049500     0.0000000
 ionic quadrupole (gauss)   =     -5.2453875    -3.0049500    -1.0000000
 ion   1 type =  2 coordinates =     11.7900000    12.0500000    11.5000000
 ion   2 type =  1 coordinates =     13.4500000    11.2200000    11.5000000
 ion   3 type =  1 coordinates =     10.5600000    10.6600000    11.5000000

%%%% SYSTEM %%%%%%%%%%%%%%%%%%%%%%%%%%%%%%%%%%%%%%%%%%%%%%%%%%%%%%%%%%%%%%%%%%%%
 system is built from all present ionic types
 system defined dimension   =  0 
 system defined axis        =  3 
 system center              =      0.5921875     0.5886250     0.5750000 
 system width               =      0.0849363 

%%%% ELECTRONS %%%%%%%%%%%%%%%%%%%%%%%%%%%%%%%%%%%%%%%%%%%%%%%%%%%%%%%%%%%%%%%%%
 number of electrons        =          8
 total electronic charge    =      8.0000000

%%%% ELECTRONS %%%%%%%%%%%%%%%%%%%%%%%%%%%%%%%%%%%%%%%%%%%%%%%%%%%%%%%%%%%%%%%%%
 number of electrons        =          8
 total electronic charge    =      8.0000000

%%%% BOUNDARY %%%%%%%%%%%%%%%%%%%%%%%%%%%%%%%%%%%%%%%%%%%%%%%%%%%%%%%%%%%%%%%%%%
 boundary label             = solvent              
 boundary mode              = electronic           
 boundary is built as a function of a smooth density
 function type              =  2 
 using the modified SCCS function with parameters 
 rhomax                     =      0.0050000 
 rhomin                     =      0.0001000 
 volume of the QM region    =    925.9497833 
 surface of the QM region   =    444.2662167 

%%%% DIELECTRIC %%%%%%%%%%%%%%%%%%%%%%%%%%%%%%%%%%%%%%%%%%%%%%%%%%%%%%%%%%%%%%%%%
 dielectric build on homogeneous background
 environment bulk permitt.  =    100.0000000 
 dielectric flags
 need gradient              =  F 
 need factor depend. sqrt   =  T 
 total dielectric charge    =      0.0000000

%%%% DENSITY %%%%%%%%%%%%%%%%%%%%%%%%%%%%%%%%%%%%%%%%%%%%%%%%%%%%%%%%%%%%%%%%%%%
 density label              = dvtot                                                                           
 integral of density        =      0.000000000    

%%%% DENSITY %%%%%%%%%%%%%%%%%%%%%%%%%%%%%%%%%%%%%%%%%%%%%%%%%%%%%%%%%%%%%%%%%%%
 density label              = vreference                                                                      
 integral of density        =      0.000000000    

%%%% DENSITY %%%%%%%%%%%%%%%%%%%%%%%%%%%%%%%%%%%%%%%%%%%%%%%%%%%%%%%%%%%%%%%%%%%
 density label              = velectrostatic                                                                  
 integral of density        =      0.000000000    

%%%% CHARGES %%%%%%%%%%%%%%%%%%%%%%%%%%%%%%%%%%%%%%%%%%%%%%%%%%%%%%%%%%%%%%%%%%%
 total number of charges    =         11
 total charge               =     -0.0000000

%%%% DENSITY %%%%%%%%%%%%%%%%%%%%%%%%%%%%%%%%%%%%%%%%%%%%%%%%%%%%%%%%%%%%%%%%%%%
 density label              = vsoftcavity                                                                     
 integral of density        =      0.000000000    

%%%% ELECTRONS %%%%%%%%%%%%%%%%%%%%%%%%%%%%%%%%%%%%%%%%%%%%%%%%%%%%%%%%%%%%%%%%%
 number of electrons        =          8
 total electronic charge    =      8.0000000

%%%% ELECTRONS %%%%%%%%%%%%%%%%%%%%%%%%%%%%%%%%%%%%%%%%%%%%%%%%%%%%%%%%%%%%%%%%%
 number of electrons        =          8
 total electronic charge    =      8.0000000

%%%% BOUNDARY %%%%%%%%%%%%%%%%%%%%%%%%%%%%%%%%%%%%%%%%%%%%%%%%%%%%%%%%%%%%%%%%%%
 boundary label             = solvent              
 boundary mode              = electronic           
 boundary is built as a function of a smooth density
 function type              =  2 
 using the modified SCCS function with parameters 
 rhomax                     =      0.0050000 
 rhomin                     =      0.0001000 
 volume of the QM region    =    310.4639139 
 surface of the QM region   =    220.8054679 

%%%% DIELECTRIC %%%%%%%%%%%%%%%%%%%%%%%%%%%%%%%%%%%%%%%%%%%%%%%%%%%%%%%%%%%%%%%%%
 dielectric build on homogeneous background
 environment bulk permitt.  =    100.0000000 
 dielectric flags
 need gradient              =  F 
 need factor depend. sqrt   =  T 
 total dielectric charge    =      0.0000000

%%%% DENSITY %%%%%%%%%%%%%%%%%%%%%%%%%%%%%%%%%%%%%%%%%%%%%%%%%%%%%%%%%%%%%%%%%%%
 density label              = vreference                                                                      
 integral of density        =     0.1104930110E-12

%%%% COMPUTE ELECTROSTATIC POTENTIAL %%%%%%%%%%%%%%%%%%%%%%%%%%%%%%%%%%%%%%%%%%%
 Iteration #          1
  pAp =    27.365986385666421       rzold =    26.210169555859490       alpha =   0.95776447398905684     
 delta_qm =   0.130667E-01 delta_en =   0.295036E+03 tol =   0.100000E-04
 Iteration #          2
  pAp =    200.49968373095641       rzold =    13.175116603854285       alpha =    6.5711408410666208E-002
 delta_qm =   0.500592E-02 delta_en =   0.433023E+02 tol =   0.100000E-04
 Iteration #          3
  pAp =    5.0790348176580302       rzold =   0.78256870425317004       alpha =   0.15407823185863029     
 delta_qm =   0.918678E-03 delta_en =   0.145838E+01 tol =   0.100000E-04
 Iteration #          4
  pAp =    5.3765015525769004E-002  rzold =    1.4088691246404602E-002  alpha =   0.26204198229333797     
 delta_qm =   0.443008E-03 delta_en =   0.339130E+00 tol =   0.100000E-04
 Iteration #          5
  pAp =    1.3761901027845873E-003  rzold =    8.2497849697316821E-004  alpha =   0.59946550647610686     
 delta_qm =   0.110618E-03 delta_en =   0.211445E-01 tol =   0.100000E-04
 Iteration #          6
  pAp =    2.6151812425901830E-004  rzold =    9.9321000692422756E-005  alpha =   0.37978629960671922     
 delta_qm =   0.500352E-04 delta_en =   0.432608E-02 tol =   0.100000E-04
 Iteration #          7
  pAp =    4.7855559753195420E-006  rzold =    4.3334886948025188E-006  alpha =   0.90553505531050915     
 delta_qm =   0.319105E-04 delta_en =   0.175959E-02 tol =   0.100000E-04
 Iteration #          8
  pAp =    4.7128498801463610E-006  rzold =    3.1465487049497250E-006  alpha =   0.66765307297503107     
 delta_qm =   0.231525E-04 delta_en =   0.926277E-03 tol =   0.100000E-04
 Iteration #          9
  pAp =    5.5327213049965510E-006  rzold =    2.2979868229505401E-006  alpha =   0.41534476368351481     
 delta_qm =   0.166205E-04 delta_en =   0.477345E-03 tol =   0.100000E-04
 Iteration #         10
  pAp =    3.1509104349313849E-006  rzold =    9.5069242063835229E-007  alpha =   0.30171991247318802     
 delta_qm =   0.110348E-04 delta_en =   0.210412E-03 tol =   0.100000E-04
 Iteration #         11
  pAp =    5.0638448379556825E-007  rzold =    2.9869721320952185E-007  alpha =   0.58986249138334279     
 delta_qm =   0.323828E-05 delta_en =   0.181206E-04 tol =   0.100000E-04
 Iteration #         12
  pAp =    1.3626593414209180E-007  rzold =    4.0608667846161767E-008  alpha =   0.29801041692354990     
 delta_qm =   0.239107E-05 delta_en =   0.987938E-05 tol =   0.100000E-04
 Charges are converged, EXIT

%%%% DENSITY %%%%%%%%%%%%%%%%%%%%%%%%%%%%%%%%%%%%%%%%%%%%%%%%%%%%%%%%%%%%%%%%%%%
 density label              = velectrostatic                                                                  
 integral of density        =     -39.88977327    

%%%% CHARGES %%%%%%%%%%%%%%%%%%%%%%%%%%%%%%%%%%%%%%%%%%%%%%%%%%%%%%%%%%%%%%%%%%%
 total number of charges    =         11
 total charge               =     -0.0000000

%%%% DENSITY %%%%%%%%%%%%%%%%%%%%%%%%%%%%%%%%%%%%%%%%%%%%%%%%%%%%%%%%%%%%%%%%%%%
 density label              = vsoftcavity                                                                     
 integral of density        =      15.95970382    

%%%% DENSITY %%%%%%%%%%%%%%%%%%%%%%%%%%%%%%%%%%%%%%%%%%%%%%%%%%%%%%%%%%%%%%%%%%%
 density label              = dvtot                                                                           
 integral of density        =     -23.93006945    

%%%% ELECTRONS %%%%%%%%%%%%%%%%%%%%%%%%%%%%%%%%%%%%%%%%%%%%%%%%%%%%%%%%%%%%%%%%%
 number of electrons        =          8
 total electronic charge    =      8.0000000

%%%% ELECTRONS %%%%%%%%%%%%%%%%%%%%%%%%%%%%%%%%%%%%%%%%%%%%%%%%%%%%%%%%%%%%%%%%%
 number of electrons        =          8
 total electronic charge    =      8.0000000

%%%% BOUNDARY %%%%%%%%%%%%%%%%%%%%%%%%%%%%%%%%%%%%%%%%%%%%%%%%%%%%%%%%%%%%%%%%%%
 boundary label             = solvent              
 boundary mode              = electronic           
 boundary is built as a function of a smooth density
 function type              =  2 
 using the modified SCCS function with parameters 
 rhomax                     =      0.0050000 
 rhomin                     =      0.0001000 
 volume of the QM region    =    326.7415671 
 surface of the QM region   =    228.9909565 

%%%% DIELECTRIC %%%%%%%%%%%%%%%%%%%%%%%%%%%%%%%%%%%%%%%%%%%%%%%%%%%%%%%%%%%%%%%%%
 dielectric build on homogeneous background
 environment bulk permitt.  =    100.0000000 
 dielectric flags
 need gradient              =  F 
 need factor depend. sqrt   =  T 
 total dielectric charge    =      0.0001512

%%%% DENSITY %%%%%%%%%%%%%%%%%%%%%%%%%%%%%%%%%%%%%%%%%%%%%%%%%%%%%%%%%%%%%%%%%%%
 density label              = vreference                                                                      
 integral of density        =    -0.5873340948E-11

%%%% COMPUTE ELECTROSTATIC POTENTIAL %%%%%%%%%%%%%%%%%%%%%%%%%%%%%%%%%%%%%%%%%%%
 Warning: bad guess with residual norm =   0.442651E+03, reset to no guess
 Iteration #          1
  pAp =    29.153243008346163       rzold =    28.370592956089791       alpha =   0.97315392829427894     
 delta_qm =   0.156131E-01 delta_en =   0.421233E+03 tol =   0.100000E-04
 Iteration #          2
  pAp =    146.13031238364709       rzold =    9.2471169415907024       alpha =    6.3279936864252637E-002
 delta_qm =   0.567157E-02 delta_en =   0.555841E+02 tol =   0.100000E-04
 Iteration #          3
  pAp =    4.0935363161833944       rzold =   0.61363888672848166       alpha =   0.14990434659209459     
 delta_qm =   0.109616E-02 delta_en =   0.207630E+01 tol =   0.100000E-04
 Iteration #          4
  pAp =    5.3880895367360342E-002  rzold =    1.3192731615595834E-002  alpha =   0.24484989578676622     
 delta_qm =   0.500419E-03 delta_en =   0.432725E+00 tol =   0.100000E-04
 Iteration #          5
  pAp =    1.0654469044115648E-003  rzold =    6.5304024132480651E-004  alpha =   0.61292612388364287     
 delta_qm =   0.125872E-03 delta_en =   0.273781E-01 tol =   0.100000E-04
 Iteration #          6
  pAp =    2.2634979238918070E-004  rzold =    7.7411771825326058E-005  alpha =   0.34200063100665901     
 delta_qm =   0.778017E-04 delta_en =   0.104598E-01 tol =   0.100000E-04
 Iteration #          7
  pAp =    8.9606497925819875E-006  rzold =    4.7155717798933534E-006  alpha =   0.52625332861430507     
 delta_qm =   0.562026E-04 delta_en =   0.545829E-02 tol =   0.100000E-04
 Iteration #          8
  pAp =    4.3439634813140030E-006  rzold =    2.6944327942266585E-006  alpha =   0.62027059062927969     
 delta_qm =   0.318501E-04 delta_en =   0.175293E-02 tol =   0.100000E-04
 Iteration #          9
  pAp =    6.5600669113320818E-006  rzold =    2.0887065834520114E-006  alpha =   0.31839714620043108     
 delta_qm =   0.242678E-04 delta_en =   0.101767E-02 tol =   0.100000E-04
 Iteration #         10
  pAp =    2.0787491042809836E-006  rzold =    9.9744173797290021E-007  alpha =   0.47982786182265336     
 delta_qm =   0.169267E-04 delta_en =   0.495097E-03 tol =   0.100000E-04
 Iteration #         11
  pAp =    4.4637862600039551E-007  rzold =    2.4010029684472261E-007  alpha =   0.53788484228299471     
 delta_qm =   0.986781E-05 delta_en =   0.168262E-03 tol =   0.100000E-04
 Iteration #         12
  pAp =    7.5939525288587133E-007  rzold =    2.1861027046360649E-007  alpha =   0.28787415990926818     
 delta_qm =   0.549224E-05 delta_en =   0.521245E-04 tol =   0.100000E-04
 Iteration #         13
  pAp =    2.6349997556259262E-008  rzold =    2.6495912517019484E-008  alpha =    1.0055375701818827     
 delta_qm =   0.290792E-05 delta_en =   0.146120E-04 tol =   0.100000E-04
 Iteration #         14
  pAp =    4.4304880240701373E-008  rzold =    2.0373313589205161E-008  alpha =   0.45984355399495919     
 delta_qm =   0.224898E-05 delta_en =   0.874005E-05 tol =   0.100000E-04
 Charges are converged, EXIT

%%%% DENSITY %%%%%%%%%%%%%%%%%%%%%%%%%%%%%%%%%%%%%%%%%%%%%%%%%%%%%%%%%%%%%%%%%%%
 density label              = velectrostatic                                                                  
 integral of density        =     -42.89885269    

%%%% CHARGES %%%%%%%%%%%%%%%%%%%%%%%%%%%%%%%%%%%%%%%%%%%%%%%%%%%%%%%%%%%%%%%%%%%
 total number of charges    =         11
 total charge               =      0.0000000

%%%% DENSITY %%%%%%%%%%%%%%%%%%%%%%%%%%%%%%%%%%%%%%%%%%%%%%%%%%%%%%%%%%%%%%%%%%%
 density label              = vsoftcavity                                                                     
 integral of density        =      11.40384083    

%%%% DENSITY %%%%%%%%%%%%%%%%%%%%%%%%%%%%%%%%%%%%%%%%%%%%%%%%%%%%%%%%%%%%%%%%%%%
 density label              = dvtot                                                                           
 integral of density        =     -31.49501186    

%%%% ELECTRONS %%%%%%%%%%%%%%%%%%%%%%%%%%%%%%%%%%%%%%%%%%%%%%%%%%%%%%%%%%%%%%%%%
 number of electrons        =          8
 total electronic charge    =      8.0000000

%%%% ELECTRONS %%%%%%%%%%%%%%%%%%%%%%%%%%%%%%%%%%%%%%%%%%%%%%%%%%%%%%%%%%%%%%%%%
 number of electrons        =          8
 total electronic charge    =      8.0000000

%%%% BOUNDARY %%%%%%%%%%%%%%%%%%%%%%%%%%%%%%%%%%%%%%%%%%%%%%%%%%%%%%%%%%%%%%%%%%
 boundary label             = solvent              
 boundary mode              = electronic           
 boundary is built as a function of a smooth density
 function type              =  2 
 using the modified SCCS function with parameters 
 rhomax                     =      0.0050000 
 rhomin                     =      0.0001000 
 volume of the QM region    =    299.1529324 
 surface of the QM region   =    216.1228678 

%%%% DIELECTRIC %%%%%%%%%%%%%%%%%%%%%%%%%%%%%%%%%%%%%%%%%%%%%%%%%%%%%%%%%%%%%%%%%
 dielectric build on homogeneous background
 environment bulk permitt.  =    100.0000000 
 dielectric flags
 need gradient              =  F 
 need factor depend. sqrt   =  T 
 total dielectric charge    =      0.0000048

%%%% DENSITY %%%%%%%%%%%%%%%%%%%%%%%%%%%%%%%%%%%%%%%%%%%%%%%%%%%%%%%%%%%%%%%%%%%
 density label              = vreference                                                                      
 integral of density        =    -0.1782414195E-10

%%%% COMPUTE ELECTROSTATIC POTENTIAL %%%%%%%%%%%%%%%%%%%%%%%%%%%%%%%%%%%%%%%%%%%
 Warning: bad guess with residual norm =   0.295800E+03, reset to no guess
 Iteration #          1
  pAp =    29.126071677210177       rzold =    28.571404245296268       alpha =   0.98095632538225497     
 delta_qm =   0.128575E-01 delta_en =   0.285666E+03 tol =   0.100000E-04
 Iteration #          2
  pAp =    78.853125134051879       rzold =    5.3307623294367099       alpha =    6.7603691297894758E-002
 delta_qm =   0.573054E-02 delta_en =   0.567460E+02 tol =   0.100000E-04
 Iteration #          3
  pAp =    8.0816888945368675       rzold =   0.93517406383147972       alpha =   0.11571517736393529     
 delta_qm =   0.113227E-02 delta_en =   0.221535E+01 tol =   0.100000E-04
 Iteration #          4
  pAp =    8.6415106779789516E-002  rzold =    1.8859598805851963E-002  alpha =   0.21824423423917802     
 delta_qm =   0.491796E-03 delta_en =   0.417941E+00 tol =   0.100000E-04
 Iteration #          5
  pAp =    1.2664741030475547E-003  rzold =    7.3351910281597326E-004  alpha =   0.57918207806293409     
 delta_qm =   0.149859E-03 delta_en =   0.388070E-01 tol =   0.100000E-04
 Iteration #          6
  pAp =    5.0920625654676300E-004  rzold =    1.6258085509573441E-004  alpha =   0.31928290944085008     
 delta_qm =   0.900925E-04 delta_en =   0.140256E-01 tol =   0.100000E-04
 Iteration #          7
  pAp =    2.0816192277309328E-005  rzold =    8.8641918802783579E-006  alpha =   0.42583157198930960     
 delta_qm =   0.686120E-04 delta_en =   0.813475E-02 tol =   0.100000E-04
 Iteration #          8
  pAp =    4.6839502531615946E-006  rzold =    3.7199526748832487E-006  alpha =   0.79419132864879116     
 delta_qm =   0.290613E-04 delta_en =   0.145939E-02 tol =   0.100000E-04
 Iteration #          9
  pAp =    5.2607467201136502E-006  rzold =    2.1863801642351105E-006  alpha =   0.41560262840174850     
 delta_qm =   0.184948E-04 delta_en =   0.591073E-03 tol =   0.100000E-04
 Iteration #         10
  pAp =    6.8359858161778037E-006  rzold =    1.6623137610313118E-006  alpha =   0.24317103717467325     
 delta_qm =   0.136459E-04 delta_en =   0.321773E-03 tol =   0.100000E-04
 Iteration #         11
  pAp =    3.1438929937792423E-007  rzold =    2.1725242151876063E-007  alpha =   0.69102994901109427     
 delta_qm =   0.596944E-05 delta_en =   0.615758E-04 tol =   0.100000E-04
 Iteration #         12
  pAp =    5.1829959592136632E-007  rzold =    1.1260780277551669E-007  alpha =   0.21726392160375319     
 delta_qm =   0.435059E-05 delta_en =   0.327070E-04 tol =   0.100000E-04
 Iteration #         13
  pAp =    4.4261370621080636E-008  rzold =    2.2969870068654656E-008  alpha =   0.51895975534283734     
 delta_qm =   0.314881E-05 delta_en =   0.171332E-04 tol =   0.100000E-04
 Iteration #         14
  pAp =    1.0563462480533385E-008  rzold =    1.1721497361874573E-008  alpha =    1.1096264490431280     
 delta_qm =   0.154556E-05 delta_en =   0.412779E-05 tol =   0.100000E-04
 Charges are converged, EXIT

%%%% DENSITY %%%%%%%%%%%%%%%%%%%%%%%%%%%%%%%%%%%%%%%%%%%%%%%%%%%%%%%%%%%%%%%%%%%
 density label              = velectrostatic                                                                  
 integral of density        =     -39.11077141    

%%%% CHARGES %%%%%%%%%%%%%%%%%%%%%%%%%%%%%%%%%%%%%%%%%%%%%%%%%%%%%%%%%%%%%%%%%%%
 total number of charges    =         11
 total charge               =      0.0000000

%%%% DENSITY %%%%%%%%%%%%%%%%%%%%%%%%%%%%%%%%%%%%%%%%%%%%%%%%%%%%%%%%%%%%%%%%%%%
 density label              = vsoftcavity                                                                     
 integral of density        =      10.96605292    

%%%% DENSITY %%%%%%%%%%%%%%%%%%%%%%%%%%%%%%%%%%%%%%%%%%%%%%%%%%%%%%%%%%%%%%%%%%%
 density label              = dvtot                                                                           
 integral of density        =     -28.14471849    

%%%% ELECTRONS %%%%%%%%%%%%%%%%%%%%%%%%%%%%%%%%%%%%%%%%%%%%%%%%%%%%%%%%%%%%%%%%%
 number of electrons        =          8
 total electronic charge    =      8.0000000

%%%% ELECTRONS %%%%%%%%%%%%%%%%%%%%%%%%%%%%%%%%%%%%%%%%%%%%%%%%%%%%%%%%%%%%%%%%%
 number of electrons        =          8
 total electronic charge    =      8.0000000

%%%% BOUNDARY %%%%%%%%%%%%%%%%%%%%%%%%%%%%%%%%%%%%%%%%%%%%%%%%%%%%%%%%%%%%%%%%%%
 boundary label             = solvent              
 boundary mode              = electronic           
 boundary is built as a function of a smooth density
 function type              =  2 
 using the modified SCCS function with parameters 
 rhomax                     =      0.0050000 
 rhomin                     =      0.0001000 
 volume of the QM region    =    299.1529324 
 surface of the QM region   =    216.1228678 

%%%% DIELECTRIC %%%%%%%%%%%%%%%%%%%%%%%%%%%%%%%%%%%%%%%%%%%%%%%%%%%%%%%%%%%%%%%%%
 dielectric build on homogeneous background
 environment bulk permitt.  =    100.0000000 
 dielectric flags
 need gradient              =  F 
 need factor depend. sqrt   =  T 
 total dielectric charge    =      0.0001499

%%%% DENSITY %%%%%%%%%%%%%%%%%%%%%%%%%%%%%%%%%%%%%%%%%%%%%%%%%%%%%%%%%%%%%%%%%%%
 density label              = dvtot                                                                           
 integral of density        =     -28.14471849    

%%%% DENSITY %%%%%%%%%%%%%%%%%%%%%%%%%%%%%%%%%%%%%%%%%%%%%%%%%%%%%%%%%%%%%%%%%%%
 density label              = vreference                                                                      
 integral of density        =    -0.1782414195E-10

%%%% DENSITY %%%%%%%%%%%%%%%%%%%%%%%%%%%%%%%%%%%%%%%%%%%%%%%%%%%%%%%%%%%%%%%%%%%
 density label              = velectrostatic                                                                  
 integral of density        =     -39.11077141    

%%%% CHARGES %%%%%%%%%%%%%%%%%%%%%%%%%%%%%%%%%%%%%%%%%%%%%%%%%%%%%%%%%%%%%%%%%%%
 total number of charges    =         11
 total charge               =      0.0000000

%%%% DENSITY %%%%%%%%%%%%%%%%%%%%%%%%%%%%%%%%%%%%%%%%%%%%%%%%%%%%%%%%%%%%%%%%%%%
 density label              = vsoftcavity                                                                     
 integral of density        =      10.96605292    
