
     Program PWSCF v.7.0 starts on 26Apr2022 at 12:40:26 

     This program is part of the open-source Quantum ESPRESSO suite
     for quantum simulation of materials; please cite
         "P. Giannozzi et al., J. Phys.:Condens. Matter 21 395502 (2009);
         "P. Giannozzi et al., J. Phys.:Condens. Matter 29 465901 (2017);
         "P. Giannozzi et al., J. Chem. Phys. 152 154105 (2020);
          URL http://www.quantum-espresso.org", 
     in publications or presentations arising from this work. More details at
     http://www.quantum-espresso.org/quote

     Parallel version (MPI), running on     1 processors

     MPI processes distributed on     1 nodes
     61754 MiB available memory on the printing compute node when the environment starts
 
     Reading input from pw.in

     Current dimensions of program PWSCF are:
     Max number of different atomic species (ntypx) = 10
     Max number of k-points (npk) =  40000
     Max angular momentum in pseudopotentials (lmaxx) =  4
 
     Reading input from environ.in:
     * using electronic solvent mode
     * setting boundary derivatives method to SCCS default
     * setting electrolyte-boundary derivatives method to SCCS default
     
     file Si.pbe-n-kjpaw_psl.1.0.0.UPF: wavefunction(s)  3S 3P renormalized
     Message from routine setup:
     using ibrav=0 with symmetry is DISCOURAGED, use correct ibrav instead

     Subspace diagonalization in iterative solution of the eigenvalue problem:
     a serial algorithm will be used

 
     G-vector sticks info
     --------------------
     sticks:   dense  smooth     PW     G-vecs:    dense   smooth      PW
     Sum         341     341     89                40125    40125    5049
 
     Using Slab Decomposition
 


     bravais-lattice index     =            0
     lattice parameter (alat)  =       7.3075  a.u.
     unit-cell volume          =    3311.1351 (a.u.)^3
     number of atoms/cell      =            4
     number of atomic types    =            1
     number of electrons       =        16.00
     number of Kohn-Sham states=           12
     kinetic-energy cutoff     =      20.0000  Ry
     charge density cutoff     =      80.0000  Ry
     scf convergence threshold =      1.0E-12
     mixing beta               =       0.7000
     number of iterations used =            8  plain     mixing
     Exchange-correlation= SLA  PW   PBX  PBC
                           (   1   4   3   4   0   0   0)

     ================================================================================
 
                                  Environ Setup Summary

     ================================================================================
 
     Please cite

          O. Andreussi, I. Dabo and N. Marzari, J. Chem. Phys. 136, 064102 (2012)
          F. Nattino, M. Truscott, N. Marzari, and O. Andreussi, J. Chem. Phys. 150, 041722 (2019)
          Q. Campbell and I. Dabo, Phys. Rev. B 95, 205308 (2017)
          Q. Campbell, D. Fisher and I. Dabo, Phys. Rev. Mat. 3, 015404 (2019)

     in publications or presentations arising from this work.

     ================================================================================
 
     Parameters
     ==========

     compensation onset threshold      =               0.1000E+00
     static permittivity               =                    78.30

     Solvent Boundary
     ================

     solvent mode                      =               electronic
     derivatives method                =                    chain
     electrolyte derivatives method    =                    chain
     numerical core for derivatives    =                      fft
     switching function adopted        =                     SCCS
     density limit for vacuum region   =               0.5000E-02
     density limit for bulk solvent    =               0.1000E-03

     Electrostatic Setup
     ===================

     electrostatic problem to solve    =              generalized
     numerical solver adopted          =              fixed-point
     type of auxiliary density adopted =                     full
     numerical core for poisson        =                      fft
     type of pbc corrections           =                   ms-gcs
     numerical core for corrections    =                      1da

     ================================================================================
 

     celldm(1)=   7.307524  celldm(2)=   0.000000  celldm(3)=   0.000000
     celldm(4)=   0.000000  celldm(5)=   0.000000  celldm(6)=   0.000000

     crystal axes: (cart. coord. in units of alat)
               a(1) = (   1.000000   0.000000   0.000000 )  
               a(2) = (   0.000000   1.000000   0.000000 )  
               a(3) = (   0.000000   0.000000   8.485281 )  

     reciprocal axes: (cart. coord. in units 2 pi/alat)
               b(1) = (  1.000000  0.000000  0.000000 )  
               b(2) = (  0.000000  1.000000  0.000000 )  
               b(3) = (  0.000000  0.000000  0.117851 )  


     PseudoPot. # 1 for Si read from file:
     /ascldap/users/qcampbe/Pseudos/pslibrary.1.0.0/pbe/PSEUDOPOTENTIALS/Si.pbe-n-kjpaw_psl.1.0.0.UPF
     MD5 check sum: f6fdc0b5ea41c4765647ac85391047bf
     Pseudo is Projector augmented-wave + core cor, Zval =  4.0
     Generated using &quot;atomic&quot; code by A. Dal Corso  v.6.4.1
     Shape of augmentation charge: PSQ
     Using radial grid of 1141 points,  6 beta functions with: 
                l(1) =   0
                l(2) =   0
                l(3) =   1
                l(4) =   1
                l(5) =   2
                l(6) =   2
     Q(r) pseudized with 0 coefficients 


     atomic species   valence    mass     pseudopotential
        Si             4.00    28.08550     Si( 1.00)

      8 Sym. Ops., with inversion, found ( 4 have fractional translation)



   Cartesian axes

     site n.     atom                  positions (alat units)
         1           Si  tau(   1) = (   1.0000000   0.5000000   4.7729703  )
         2           Si  tau(   2) = (   0.5000000   0.5000000   3.7123103  )
         3           Si  tau(   3) = (   0.5000000   1.0000000   4.0658665  )
         4           Si  tau(   4) = (   1.0000000   0.0000000   4.4194142  )

     number of k points=     1  Marzari-Vanderbilt smearing, width (Ry)=  0.0001
                       cart. coord. in units 2pi/alat
        k(    1) = (   0.0000000   0.0000000   0.0000000), wk =   2.0000000

     Dense  grid:    40125 G-vectors     FFT dimensions: (  24,  24, 180)

     Estimated max dynamical RAM per process >     151.26 MB

Environ Warning (1005): wrong integral of erfc function


     Check: negative core charge=   -0.000003

     Initial potential from superposition of free atoms

     starting charge      15.9978, renormalised to      16.0000

     negative rho (up, down):  3.080E-03 0.000E+00
     Starting wfcs are   16 randomized atomic wfcs
     Checking if some PAW data can be deallocated... 

     total cpu time spent up to now is        2.4 secs

     Self-consistent Calculation

     iteration #  1     ecut=    20.00 Ry     beta= 0.70
     Davidson diagonalization with overlap
     ethr =  1.00E-02,  avg # of iterations =  3.0

     negative rho (up, down):  2.963E-03 0.000E+00

     total cpu time spent up to now is        3.6 secs

     total energy              =    -186.03427197 Ry
     estimated scf accuracy    <       0.26721769 Ry
     electrostatic embedding   =       0.00000000 Ry
     electrolyte free energy   =       0.00001123 Ry
     correction to one-el term =       0.00000000 Ry

     iteration #  2     ecut=    20.00 Ry     beta= 0.70
     Davidson diagonalization with overlap
     ethr =  1.67E-03,  avg # of iterations =  2.0

     negative rho (up, down):  3.095E-03 0.000E+00

     add environment contribution to local potential

     total cpu time spent up to now is        5.2 secs

     total energy              =    -186.03881042 Ry
     estimated scf accuracy    <       0.09730357 Ry
     electrostatic embedding   =       0.00000000 Ry
     electrolyte free energy   =       0.00001123 Ry
     correction to one-el term =       0.00000000 Ry

     iteration #  3     ecut=    20.00 Ry     beta= 0.70
     Davidson diagonalization with overlap
     ethr =  6.08E-04,  avg # of iterations =  3.0

     negative rho (up, down):  3.246E-03 0.000E+00

     add environment contribution to local potential

     total cpu time spent up to now is        6.7 secs

     total energy              =    -186.06843354 Ry
     estimated scf accuracy    <       0.06577064 Ry
     electrostatic embedding   =      -0.00516852 Ry
     electrolyte free energy   =      -0.00002016 Ry
     correction to one-el term =       1.93430078 Ry

     iteration #  4     ecut=    20.00 Ry     beta= 0.70
     Davidson diagonalization with overlap
     ethr =  4.11E-04,  avg # of iterations =  2.0

     negative rho (up, down):  3.307E-03 0.000E+00

     add environment contribution to local potential

     total cpu time spent up to now is        8.1 secs

     total energy              =    -186.07946965 Ry
     estimated scf accuracy    <       0.00228494 Ry
     electrostatic embedding   =      -0.00447797 Ry
     electrolyte free energy   =      -0.00002020 Ry
     correction to one-el term =       1.80007939 Ry

     iteration #  5     ecut=    20.00 Ry     beta= 0.70
     Davidson diagonalization with overlap
     c_bands:  1 eigenvalues not converged
     ethr =  1.43E-05,  avg # of iterations = 20.0

     negative rho (up, down):  3.341E-03 0.000E+00

     add environment contribution to local potential

     total cpu time spent up to now is        9.7 secs

     total energy              =    -186.08063040 Ry
     estimated scf accuracy    <       0.00248431 Ry
     electrostatic embedding   =      -0.00499266 Ry
     electrolyte free energy   =      -0.00002002 Ry
     correction to one-el term =       1.78232269 Ry

     iteration #  6     ecut=    20.00 Ry     beta= 0.70
     Davidson diagonalization with overlap
     ethr =  1.43E-05,  avg # of iterations =  2.0

     negative rho (up, down):  3.358E-03 0.000E+00

     add environment contribution to local potential

     total cpu time spent up to now is       11.2 secs

     total energy              =    -186.08148314 Ry
     estimated scf accuracy    <       0.00009721 Ry
     electrostatic embedding   =      -0.00593421 Ry
     electrolyte free energy   =      -0.00002000 Ry
     correction to one-el term =       1.76751486 Ry

     iteration #  7     ecut=    20.00 Ry     beta= 0.70
     Davidson diagonalization with overlap
     ethr =  6.08E-07,  avg # of iterations =  5.0

     negative rho (up, down):  3.361E-03 0.000E+00

     add environment contribution to local potential

     total cpu time spent up to now is       12.7 secs

     total energy              =    -186.08149932 Ry
     estimated scf accuracy    <       0.00007298 Ry
     electrostatic embedding   =      -0.00622646 Ry
     electrolyte free energy   =      -0.00002017 Ry
     correction to one-el term =       1.73635548 Ry

     iteration #  8     ecut=    20.00 Ry     beta= 0.70
     Davidson diagonalization with overlap
     ethr =  4.56E-07,  avg # of iterations =  3.0

     negative rho (up, down):  3.359E-03 0.000E+00

     add environment contribution to local potential

     total cpu time spent up to now is       14.1 secs

     total energy              =    -186.08154833 Ry
     estimated scf accuracy    <       0.00001764 Ry
     electrostatic embedding   =      -0.00671002 Ry
     electrolyte free energy   =      -0.00002044 Ry
     correction to one-el term =       1.69042438 Ry

     iteration #  9     ecut=    20.00 Ry     beta= 0.70
     Davidson diagonalization with overlap
     ethr =  1.10E-07,  avg # of iterations =  2.0

     negative rho (up, down):  3.350E-03 0.000E+00

     add environment contribution to local potential

     total cpu time spent up to now is       15.6 secs

     total energy              =    -186.08154368 Ry
     estimated scf accuracy    <       0.00002440 Ry
     electrostatic embedding   =      -0.00689274 Ry
     electrolyte free energy   =      -0.00002062 Ry
     correction to one-el term =       1.67582978 Ry

     iteration # 10     ecut=    20.00 Ry     beta= 0.70
     Davidson diagonalization with overlap
     ethr =  1.10E-07,  avg # of iterations =  5.0

     negative rho (up, down):  3.344E-03 0.000E+00

     add environment contribution to local potential

     total cpu time spent up to now is       17.1 secs

     total energy              =    -186.08159406 Ry
     estimated scf accuracy    <       0.00000359 Ry
     electrostatic embedding   =      -0.00782049 Ry
     electrolyte free energy   =      -0.00002146 Ry
     correction to one-el term =       1.60631962 Ry

     iteration # 11     ecut=    20.00 Ry     beta= 0.70
     Davidson diagonalization with overlap
     ethr =  2.24E-08,  avg # of iterations =  5.0

     negative rho (up, down):  3.345E-03 0.000E+00

     add environment contribution to local potential

     total cpu time spent up to now is       18.5 secs

     total energy              =    -186.08160850 Ry
     estimated scf accuracy    <       0.00000441 Ry
     electrostatic embedding   =      -0.00863194 Ry
     electrolyte free energy   =      -0.00002230 Ry
     correction to one-el term =       1.54453600 Ry

     iteration # 12     ecut=    20.00 Ry     beta= 0.70
     Davidson diagonalization with overlap
     ethr =  2.24E-08,  avg # of iterations =  2.0

     negative rho (up, down):  3.321E-03 0.000E+00

     add environment contribution to local potential

     total cpu time spent up to now is       20.2 secs

     total energy              =    -186.08161335 Ry
     estimated scf accuracy    <       0.00000651 Ry
     electrostatic embedding   =      -0.00854966 Ry
     electrolyte free energy   =      -0.00002225 Ry
     correction to one-el term =       1.54899711 Ry

     iteration # 13     ecut=    20.00 Ry     beta= 0.70
     Davidson diagonalization with overlap
     ethr =  2.24E-08,  avg # of iterations =  8.0

     negative rho (up, down):  3.333E-03 0.000E+00

     add environment contribution to local potential

     total cpu time spent up to now is       21.9 secs

     total energy              =    -186.08144742 Ry
     estimated scf accuracy    <       0.00019951 Ry
     electrostatic embedding   =      -0.01364897 Ry
     electrolyte free energy   =      -0.00003123 Ry
     correction to one-el term =       1.18292100 Ry

     iteration # 14     ecut=    20.00 Ry     beta= 0.70
     Davidson diagonalization with overlap
     ethr =  2.24E-08,  avg # of iterations =  7.0

     negative rho (up, down):  3.332E-03 0.000E+00

     add environment contribution to local potential

     total cpu time spent up to now is       23.3 secs

     total energy              =    -186.08154886 Ry
     estimated scf accuracy    <       0.00012249 Ry
     electrostatic embedding   =      -0.01128251 Ry
     electrolyte free energy   =      -0.00002578 Ry
     correction to one-el term =       1.34608392 Ry

     iteration # 15     ecut=    20.00 Ry     beta= 0.70
     Davidson diagonalization with overlap
     ethr =  2.24E-08,  avg # of iterations =  1.0

     negative rho (up, down):  3.342E-03 0.000E+00

     add environment contribution to local potential

     total cpu time spent up to now is       24.8 secs

     total energy              =    -186.08158859 Ry
     estimated scf accuracy    <       0.00012060 Ry
     electrostatic embedding   =      -0.01126618 Ry
     electrolyte free energy   =      -0.00002577 Ry
     correction to one-el term =       1.34697231 Ry

     iteration # 16     ecut=    20.00 Ry     beta= 0.70
     Davidson diagonalization with overlap
     ethr =  2.24E-08,  avg # of iterations =  7.0

     negative rho (up, down):  3.328E-03 0.000E+00

     add environment contribution to local potential

     total cpu time spent up to now is       26.4 secs

     total energy              =    -186.08159324 Ry
     estimated scf accuracy    <       0.00002253 Ry
     electrostatic embedding   =      -0.00929492 Ry
     electrolyte free energy   =      -0.00002294 Ry
     correction to one-el term =       1.49515144 Ry

     iteration # 17     ecut=    20.00 Ry     beta= 0.70
     Davidson diagonalization with overlap
     ethr =  2.24E-08,  avg # of iterations =  6.0

     negative rho (up, down):  3.295E-03 0.000E+00

     add environment contribution to local potential

     total cpu time spent up to now is       28.3 secs

     total energy              =    -186.08193389 Ry
     estimated scf accuracy    <       0.00006658 Ry
     electrostatic embedding   =      -0.00970063 Ry
     electrolyte free energy   =      -0.00002344 Ry
     correction to one-el term =       1.47891059 Ry

     iteration # 18     ecut=    20.00 Ry     beta= 0.70
     Davidson diagonalization with overlap
     ethr =  2.24E-08,  avg # of iterations = 11.0

     negative rho (up, down):  3.320E-03 0.000E+00

     add environment contribution to local potential

     total cpu time spent up to now is       30.1 secs

     total energy              =    -186.08106836 Ry
     estimated scf accuracy    <       0.00020318 Ry
     electrostatic embedding   =      -0.01752333 Ry
     electrolyte free energy   =      -0.00004506 Ry
     correction to one-el term =       0.93752549 Ry

     iteration # 19     ecut=    20.00 Ry     beta= 0.70
     Davidson diagonalization with overlap
     ethr =  2.24E-08,  avg # of iterations = 10.0

     negative rho (up, down):  3.314E-03 0.000E+00

     add environment contribution to local potential

     total cpu time spent up to now is       31.8 secs

     total energy              =    -186.08160686 Ry
     estimated scf accuracy    <       0.00001585 Ry
     electrostatic embedding   =      -0.01139538 Ry
     electrolyte free energy   =      -0.00002563 Ry
     correction to one-el term =       1.35187177 Ry

     iteration # 20     ecut=    20.00 Ry     beta= 0.70
     Davidson diagonalization with overlap
     ethr =  2.24E-08,  avg # of iterations =  6.0

     negative rho (up, down):  3.314E-03 0.000E+00

     add environment contribution to local potential

     total cpu time spent up to now is       33.2 secs

     total energy              =    -186.08152953 Ry
     estimated scf accuracy    <       0.00001208 Ry
     electrostatic embedding   =      -0.01261177 Ry
     electrolyte free energy   =      -0.00002753 Ry
     correction to one-el term =       1.26810511 Ry

     iteration # 21     ecut=    20.00 Ry     beta= 0.70
     Davidson diagonalization with overlap
     ethr =  2.24E-08,  avg # of iterations =  1.0

     negative rho (up, down):  3.313E-03 0.000E+00

     add environment contribution to local potential

     total cpu time spent up to now is       34.6 secs

     total energy              =    -186.08153364 Ry
     estimated scf accuracy    <       0.00001250 Ry
     electrostatic embedding   =      -0.01259859 Ry
     electrolyte free energy   =      -0.00002749 Ry
     correction to one-el term =       1.26914263 Ry

     iteration # 22     ecut=    20.00 Ry     beta= 0.70
     Davidson diagonalization with overlap
     ethr =  2.24E-08,  avg # of iterations =  3.0

     negative rho (up, down):  3.311E-03 0.000E+00

     add environment contribution to local potential

     total cpu time spent up to now is       36.1 secs

     total energy              =    -186.08152247 Ry
     estimated scf accuracy    <       0.00001147 Ry
     electrostatic embedding   =      -0.01283567 Ry
     electrolyte free energy   =      -0.00002792 Ry
     correction to one-el term =       1.25294682 Ry

     iteration # 23     ecut=    20.00 Ry     beta= 0.70
     Davidson diagonalization with overlap
     ethr =  2.24E-08,  avg # of iterations =  5.0

     negative rho (up, down):  3.307E-03 0.000E+00

     add environment contribution to local potential

     total cpu time spent up to now is       37.7 secs

     total energy              =    -186.08148792 Ry
     estimated scf accuracy    <       0.00001033 Ry
     electrostatic embedding   =      -0.01336292 Ry
     electrolyte free energy   =      -0.00002884 Ry
     correction to one-el term =       1.21832775 Ry

     iteration # 24     ecut=    20.00 Ry     beta= 0.70
     Davidson diagonalization with overlap
     ethr =  2.24E-08,  avg # of iterations =  6.0

     negative rho (up, down):  3.304E-03 0.000E+00

     add environment contribution to local potential

     total cpu time spent up to now is       39.3 secs

     total energy              =    -186.08138291 Ry
     estimated scf accuracy    <       0.00000157 Ry
     electrostatic embedding   =      -0.01428540 Ry
     electrolyte free energy   =      -0.00003101 Ry
     correction to one-el term =       1.15537154 Ry

     iteration # 25     ecut=    20.00 Ry     beta= 0.70
     Davidson diagonalization with overlap
     ethr =  9.82E-09,  avg # of iterations =  6.0

     negative rho (up, down):  3.301E-03 0.000E+00

     add environment contribution to local potential

     total cpu time spent up to now is       40.9 secs

     total energy              =    -186.08131134 Ry
     estimated scf accuracy    <       0.00000024 Ry
     electrostatic embedding   =      -0.01482633 Ry
     electrolyte free energy   =      -0.00003255 Ry
     correction to one-el term =       1.11848848 Ry

     iteration # 26     ecut=    20.00 Ry     beta= 0.70
     Davidson diagonalization with overlap
     ethr =  1.49E-09,  avg # of iterations =  6.0

     negative rho (up, down):  3.299E-03 0.000E+00

     add environment contribution to local potential

     total cpu time spent up to now is       42.6 secs

     total energy              =    -186.08126268 Ry
     estimated scf accuracy    <       0.00000021 Ry
     electrostatic embedding   =      -0.01538398 Ry
     electrolyte free energy   =      -0.00003376 Ry
     correction to one-el term =       1.08495689 Ry

     iteration # 27     ecut=    20.00 Ry     beta= 0.70
     Davidson diagonalization with overlap
     ethr =  1.28E-09,  avg # of iterations =  7.0

     negative rho (up, down):  3.304E-03 0.000E+00

     add environment contribution to local potential

     total cpu time spent up to now is       44.2 secs

     total energy              =    -186.08116115 Ry
     estimated scf accuracy    <       0.00000104 Ry
     electrostatic embedding   =      -0.01601470 Ry
     electrolyte free energy   =      -0.00003594 Ry
     correction to one-el term =       1.04422555 Ry

     iteration # 28     ecut=    20.00 Ry     beta= 0.70
     Davidson diagonalization with overlap
     ethr =  1.28E-09,  avg # of iterations =  9.0

     negative rho (up, down):  3.303E-03 0.000E+00

     add environment contribution to local potential

     total cpu time spent up to now is       45.8 secs

     total energy              =    -186.08131555 Ry
     estimated scf accuracy    <       0.00000015 Ry
     electrostatic embedding   =      -0.01487940 Ry
     electrolyte free energy   =      -0.00003252 Ry
     correction to one-el term =       1.11669588 Ry

     iteration # 29     ecut=    20.00 Ry     beta= 0.70
     Davidson diagonalization with overlap
     ethr =  9.45E-10,  avg # of iterations =  5.0

     negative rho (up, down):  3.304E-03 0.000E+00

     add environment contribution to local potential

     total cpu time spent up to now is       47.3 secs

     total energy              =    -186.08128994 Ry
     estimated scf accuracy    <       0.00000002 Ry
     electrostatic embedding   =      -0.01506241 Ry
     electrolyte free energy   =      -0.00003305 Ry
     correction to one-el term =       1.10465747 Ry

     iteration # 30     ecut=    20.00 Ry     beta= 0.70
     Davidson diagonalization with overlap
     ethr =  1.48E-10,  avg # of iterations =  6.0

     negative rho (up, down):  3.303E-03 0.000E+00

     add environment contribution to local potential

     total cpu time spent up to now is       48.8 secs

     total energy              =    -186.08130899 Ry
     estimated scf accuracy    <       0.00000007 Ry
     electrostatic embedding   =      -0.01492232 Ry
     electrolyte free energy   =      -0.00003266 Ry
     correction to one-el term =       1.11369282 Ry

     iteration # 31     ecut=    20.00 Ry     beta= 0.70
     Davidson diagonalization with overlap
     ethr =  1.48E-10,  avg # of iterations =  6.0

     negative rho (up, down):  3.304E-03 0.000E+00

     add environment contribution to local potential

     total cpu time spent up to now is       50.3 secs

     total energy              =    -186.08129542 Ry
     estimated scf accuracy    <       0.00000003 Ry
     electrostatic embedding   =      -0.01501927 Ry
     electrolyte free energy   =      -0.00003293 Ry
     correction to one-el term =       1.10739546 Ry

     iteration # 32     ecut=    20.00 Ry     beta= 0.70
     Davidson diagonalization with overlap
     ethr =  1.48E-10,  avg # of iterations =  6.0

     negative rho (up, down):  3.302E-03 0.000E+00

     add environment contribution to local potential

     total cpu time spent up to now is       51.9 secs

     total energy              =    -186.08130607 Ry
     estimated scf accuracy    <       0.00000005 Ry
     electrostatic embedding   =      -0.01494325 Ry
     electrolyte free energy   =      -0.00003272 Ry
     correction to one-el term =       1.11231512 Ry

     iteration # 33     ecut=    20.00 Ry     beta= 0.70
     Davidson diagonalization with overlap
     ethr =  1.48E-10,  avg # of iterations =  7.0

     negative rho (up, down):  3.302E-03 0.000E+00

     add environment contribution to local potential

     total cpu time spent up to now is       53.4 secs

     total energy              =    -186.08125559 Ry
     estimated scf accuracy    <       0.00000001 Ry
     electrostatic embedding   =      -0.01531845 Ry
     electrolyte free energy   =      -0.00003378 Ry
     correction to one-el term =       1.08835332 Ry

     iteration # 34     ecut=    20.00 Ry     beta= 0.70
     Davidson diagonalization with overlap
     ethr =  6.98E-11,  avg # of iterations =  6.0

     negative rho (up, down):  3.301E-03 0.000E+00

     add environment contribution to local potential

     total cpu time spent up to now is       54.8 secs

     total energy              =    -186.08124875 Ry
     estimated scf accuracy    <          4.6E-09 Ry
     electrostatic embedding   =      -0.01538360 Ry
     electrolyte free energy   =      -0.00003394 Ry
     correction to one-el term =       1.08434707 Ry

     iteration # 35     ecut=    20.00 Ry     beta= 0.70
     Davidson diagonalization with overlap
     ethr =  2.88E-11,  avg # of iterations =  3.0

     negative rho (up, down):  3.302E-03 0.000E+00

     add environment contribution to local potential

     total cpu time spent up to now is       56.1 secs

     total energy              =    -186.08124778 Ry
     estimated scf accuracy    <          3.5E-09 Ry
     electrostatic embedding   =      -0.01539528 Ry
     electrolyte free energy   =      -0.00003398 Ry
     correction to one-el term =       1.08363351 Ry

     iteration # 36     ecut=    20.00 Ry     beta= 0.70
     Davidson diagonalization with overlap
     ethr =  2.16E-11,  avg # of iterations =  3.0

     negative rho (up, down):  3.302E-03 0.000E+00

     add environment contribution to local potential

     total cpu time spent up to now is       57.5 secs

     total energy              =    -186.08124827 Ry
     estimated scf accuracy    <          4.1E-09 Ry
     electrostatic embedding   =      -0.01538692 Ry
     electrolyte free energy   =      -0.00003395 Ry
     correction to one-el term =       1.08414709 Ry

     iteration # 37     ecut=    20.00 Ry     beta= 0.70
     Davidson diagonalization with overlap
     ethr =  2.16E-11,  avg # of iterations =  4.0

     negative rho (up, down):  3.302E-03 0.000E+00

     add environment contribution to local potential

     total cpu time spent up to now is       58.8 secs

     total energy              =    -186.08125036 Ry
     estimated scf accuracy    <          2.4E-09 Ry
     electrostatic embedding   =      -0.01537108 Ry
     electrolyte free energy   =      -0.00003391 Ry
     correction to one-el term =       1.08517194 Ry

     iteration # 38     ecut=    20.00 Ry     beta= 0.70
     Davidson diagonalization with overlap
     ethr =  1.52E-11,  avg # of iterations =  1.0

     negative rho (up, down):  3.302E-03 0.000E+00

     add environment contribution to local potential

     total cpu time spent up to now is       60.1 secs

     total energy              =    -186.08125044 Ry
     estimated scf accuracy    <          3.1E-09 Ry
     electrostatic embedding   =      -0.01537052 Ry
     electrolyte free energy   =      -0.00003391 Ry
     correction to one-el term =       1.08519581 Ry

     iteration # 39     ecut=    20.00 Ry     beta= 0.70
     Davidson diagonalization with overlap
     ethr =  1.52E-11,  avg # of iterations =  4.0

     negative rho (up, down):  3.302E-03 0.000E+00

     add environment contribution to local potential

     total cpu time spent up to now is       61.4 secs

     total energy              =    -186.08124931 Ry
     estimated scf accuracy    <          5.2E-10 Ry
     electrostatic embedding   =      -0.01538562 Ry
     electrolyte free energy   =      -0.00003393 Ry
     correction to one-el term =       1.08430647 Ry

     iteration # 40     ecut=    20.00 Ry     beta= 0.70
     Davidson diagonalization with overlap
     ethr =  3.25E-12,  avg # of iterations =  3.0

     negative rho (up, down):  3.302E-03 0.000E+00

     add environment contribution to local potential

     total cpu time spent up to now is       62.7 secs

     total energy              =    -186.08124933 Ry
     estimated scf accuracy    <          1.7E-09 Ry
     electrostatic embedding   =      -0.01538164 Ry
     electrolyte free energy   =      -0.00003392 Ry
     correction to one-el term =       1.08450584 Ry

     iteration # 41     ecut=    20.00 Ry     beta= 0.70
     Davidson diagonalization with overlap
     ethr =  3.25E-12,  avg # of iterations =  2.0

     negative rho (up, down):  3.302E-03 0.000E+00

     add environment contribution to local potential

     total cpu time spent up to now is       63.9 secs

     total energy              =    -186.08124961 Ry
     estimated scf accuracy    <          1.9E-09 Ry
     electrostatic embedding   =      -0.01537989 Ry
     electrolyte free energy   =      -0.00003394 Ry
     correction to one-el term =       1.08463219 Ry

     iteration # 42     ecut=    20.00 Ry     beta= 0.70
     Davidson diagonalization with overlap
     ethr =  3.25E-12,  avg # of iterations =  2.0

     negative rho (up, down):  3.302E-03 0.000E+00

     add environment contribution to local potential

     total cpu time spent up to now is       65.1 secs

     total energy              =    -186.08125017 Ry
     estimated scf accuracy    <          1.6E-09 Ry
     electrostatic embedding   =      -0.01537954 Ry
     electrolyte free energy   =      -0.00003391 Ry
     correction to one-el term =       1.08463993 Ry

     iteration # 43     ecut=    20.00 Ry     beta= 0.70
     Davidson diagonalization with overlap
     ethr =  3.25E-12,  avg # of iterations =  3.0

     negative rho (up, down):  3.302E-03 0.000E+00

     add environment contribution to local potential

     total cpu time spent up to now is       66.5 secs

     total energy              =    -186.08125000 Ry
     estimated scf accuracy    <          1.6E-10 Ry
     electrostatic embedding   =      -0.01538409 Ry
     electrolyte free energy   =      -0.00003392 Ry
     correction to one-el term =       1.08438821 Ry

     iteration # 44     ecut=    20.00 Ry     beta= 0.70
     Davidson diagonalization with overlap
     ethr =  1.01E-12,  avg # of iterations =  6.0

     negative rho (up, down):  3.301E-03 0.000E+00

     add environment contribution to local potential

     total cpu time spent up to now is       67.8 secs

     total energy              =    -186.08124865 Ry
     estimated scf accuracy    <          5.1E-10 Ry
     electrostatic embedding   =      -0.01539257 Ry
     electrolyte free energy   =      -0.00003395 Ry
     correction to one-el term =       1.08384595 Ry

     iteration # 45     ecut=    20.00 Ry     beta= 0.70
     Davidson diagonalization with overlap
     ethr =  1.01E-12,  avg # of iterations =  4.0

     negative rho (up, down):  3.301E-03 0.000E+00

     add environment contribution to local potential

     total cpu time spent up to now is       69.1 secs

     total energy              =    -186.08124831 Ry
     estimated scf accuracy    <          6.2E-11 Ry
     electrostatic embedding   =      -0.01539746 Ry
     electrolyte free energy   =      -0.00003396 Ry
     correction to one-el term =       1.08355838 Ry

     iteration # 46     ecut=    20.00 Ry     beta= 0.70
     Davidson diagonalization with overlap
     ethr =  3.87E-13,  avg # of iterations =  5.0

     negative rho (up, down):  3.301E-03 0.000E+00

     add environment contribution to local potential

     total cpu time spent up to now is       70.5 secs

     total energy              =    -186.08124787 Ry
     estimated scf accuracy    <          1.2E-11 Ry
     electrostatic embedding   =      -0.01540121 Ry
     electrolyte free energy   =      -0.00003397 Ry
     correction to one-el term =       1.08333259 Ry

     iteration # 47     ecut=    20.00 Ry     beta= 0.70
     Davidson diagonalization with overlap
     ethr =  1.00E-13,  avg # of iterations =  7.0

     negative rho (up, down):  3.301E-03 0.000E+00

     add environment contribution to local potential

     total cpu time spent up to now is       71.8 secs

     total energy              =    -186.08124669 Ry
     estimated scf accuracy    <          7.4E-12 Ry
     electrostatic embedding   =      -0.01541049 Ry
     electrolyte free energy   =      -0.00003400 Ry
     correction to one-el term =       1.08276055 Ry

     iteration # 48     ecut=    20.00 Ry     beta= 0.70
     Davidson diagonalization with overlap
     ethr =  1.00E-13,  avg # of iterations =  6.0

     negative rho (up, down):  3.301E-03 0.000E+00

     add environment contribution to local potential

     total cpu time spent up to now is       73.1 secs

     total energy              =    -186.08124664 Ry
     estimated scf accuracy    <          9.6E-12 Ry
     electrostatic embedding   =      -0.01540834 Ry
     electrolyte free energy   =      -0.00003401 Ry
     correction to one-el term =       1.08292661 Ry

     iteration # 49     ecut=    20.00 Ry     beta= 0.70
     Davidson diagonalization with overlap
     ethr =  1.00E-13,  avg # of iterations =  4.0

     negative rho (up, down):  3.301E-03 0.000E+00

     add environment contribution to local potential

     total cpu time spent up to now is       74.3 secs

     total energy              =    -186.08124660 Ry
     estimated scf accuracy    <          2.2E-12 Ry
     electrostatic embedding   =      -0.01540920 Ry
     electrolyte free energy   =      -0.00003401 Ry
     correction to one-el term =       1.08285710 Ry

     iteration # 50     ecut=    20.00 Ry     beta= 0.70
     Davidson diagonalization with overlap
     ethr =  1.00E-13,  avg # of iterations =  3.0

     negative rho (up, down):  3.301E-03 0.000E+00

     the potential shift due to the Gaussian-smeared nuclei is    -0.1033 ev

     total cpu time spent up to now is       75.4 secs

     End of self-consistent calculation

          k = 0.0000 0.0000 0.0000 (  5049 PWs)   bands (ev):

   -16.7262 -14.4871 -11.2439  -7.8296  -7.7902  -7.3463  -6.3955  -5.2768
    -4.6726  -4.1123  -3.9561  -2.8920

     the Fermi energy is    -5.0442 ev

!    total energy              =    -186.08124681 Ry

     total all-electron energy =     -2319.464707 Ry
     estimated scf accuracy    <          3.2E-13 Ry
     smearing contrib. (-TS)   =       0.00000000 Ry
     internal energy E=F+TS    =    -186.08124681 Ry

     The total energy is F=E-TS. E is the sum of the following terms:
     one-electron contribution =    -416.36887864 Ry
     hartree contribution      =     209.53589228 Ry
     xc contribution           =     -24.25464571 Ry
     ewald contribution        =     186.30364135 Ry
     one-center paw contrib.   =    -142.36469837 Ry
     electrostatic embedding   =      -0.01540906 Ry
     electrolyte free energy   =      -0.00003402 Ry
     correction to one-el term =       1.08288535 Ry

     WARNING: you are using the parabolic pbc correction;
              the potential shift above must be added to 
              band and Fermi energies.

     convergence has been achieved in  50 iterations

     negative rho (up, down):  3.301E-03 0.000E+00

     ********************************************

     flatband potential        =      -5.04421582

     initial DFT charge        =       0.00070000

     ********************************************

     charge density from previous step

     Check: negative core charge=   -0.000003

     negative rho (up, down):  3.301E-03 0.000E+00
     extrapolated charge   16.00000, renormalised to   15.99930

Environ Warning (1005): wrong integral of erfc function


     add environment contribution to local potential

     Forces acting on atoms (cartesian axes, Ry/au):

     atom    1 type  1   force =     0.00000000    0.00000000    0.01072871
     atom    2 type  1   force =     0.00000000    0.00000000   -0.01072871
     atom    3 type  1   force =     0.00000000    0.00000000    0.00123640
     atom    4 type  1   force =     0.00000000    0.00000000   -0.00123640

     Total force =     0.015273     Total SCF correction =     0.000000

     total cpu time spent up to now is       77.6 secs

     Self-consistent Calculation

     iteration #  1     ecut=    20.00 Ry     beta= 0.70
     Davidson diagonalization with overlap
     ethr =  1.00E-06,  avg # of iterations =  1.0

     Threshold (ethr) on eigenvalues was too large:
     Diagonalizing with lowered threshold

     Davidson diagonalization with overlap
     ethr =  2.33E-09,  avg # of iterations =  2.0

     negative rho (up, down):  3.301E-03 0.000E+00

     add environment contribution to local potential

     total cpu time spent up to now is       79.3 secs

     WARNING: integrated charge=    15.99979000, expected=    15.99930000

     total energy              =    -186.08124514 Ry
     estimated scf accuracy    <       0.00000037 Ry
     electrostatic embedding   =      -0.01535719 Ry
     electrolyte free energy   =      -0.00003696 Ry
     correction to one-el term =       1.07413913 Ry

     iteration #  2     ecut=    20.00 Ry     beta= 0.70
     Davidson diagonalization with overlap
     ethr =  2.32E-09,  avg # of iterations =  2.0

     negative rho (up, down):  3.301E-03 0.000E+00

     add environment contribution to local potential

     total cpu time spent up to now is       80.6 secs

     WARNING: integrated charge=    15.99997995, expected=    15.99930000

     total energy              =    -186.08124217 Ry
     estimated scf accuracy    <       0.00000014 Ry
     electrostatic embedding   =      -0.01542007 Ry
     electrolyte free energy   =      -0.00003661 Ry
     correction to one-el term =       1.07925466 Ry

     iteration #  3     ecut=    20.00 Ry     beta= 0.70
     Davidson diagonalization with overlap
     ethr =  8.57E-10,  avg # of iterations =  4.0

     negative rho (up, down):  3.301E-03 0.000E+00

     add environment contribution to local potential

     total cpu time spent up to now is       81.9 secs

     WARNING: integrated charge=    16.00000271, expected=    15.99930000

     total energy              =    -186.08124113 Ry
     estimated scf accuracy    <       0.00000085 Ry
     electrostatic embedding   =      -0.01541930 Ry
     electrolyte free energy   =      -0.00003649 Ry
     correction to one-el term =       1.08205790 Ry

     iteration #  4     ecut=    20.00 Ry     beta= 0.70
     Davidson diagonalization with overlap
     ethr =  8.57E-10,  avg # of iterations =  2.0

     negative rho (up, down):  3.301E-03 0.000E+00

     add environment contribution to local potential

     total cpu time spent up to now is       83.1 secs

     WARNING: integrated charge=    15.99999858, expected=    15.99930000

     total energy              =    -186.08124233 Ry
     estimated scf accuracy    <       0.00000016 Ry
     electrostatic embedding   =      -0.01542965 Ry
     electrolyte free energy   =      -0.00003646 Ry
     correction to one-el term =       1.08253126 Ry

     iteration #  5     ecut=    20.00 Ry     beta= 0.70
     Davidson diagonalization with overlap
     ethr =  8.57E-10,  avg # of iterations =  2.0

     negative rho (up, down):  3.301E-03 0.000E+00

     add environment contribution to local potential

     total cpu time spent up to now is       84.3 secs

     WARNING: integrated charge=    15.99999761, expected=    15.99930000

     total energy              =    -186.08124264 Ry
     estimated scf accuracy    <       0.00000004 Ry
     electrostatic embedding   =      -0.01543084 Ry
     electrolyte free energy   =      -0.00003647 Ry
     correction to one-el term =       1.08259732 Ry

     iteration #  6     ecut=    20.00 Ry     beta= 0.70
     Davidson diagonalization with overlap
     ethr =  2.55E-10,  avg # of iterations =  3.0

     negative rho (up, down):  3.301E-03 0.000E+00

     add environment contribution to local potential

     total cpu time spent up to now is       85.6 secs

     WARNING: integrated charge=    15.99999887, expected=    15.99930000

     total energy              =    -186.08124296 Ry
     estimated scf accuracy    <          8.2E-09 Ry
     electrostatic embedding   =      -0.01543086 Ry
     electrolyte free energy   =      -0.00003647 Ry
     correction to one-el term =       1.08269252 Ry

     iteration #  7     ecut=    20.00 Ry     beta= 0.70
     Davidson diagonalization with overlap
     ethr =  5.15E-11,  avg # of iterations =  5.0

     negative rho (up, down):  3.301E-03 0.000E+00

     add environment contribution to local potential

     total cpu time spent up to now is       86.9 secs

     WARNING: integrated charge=    15.99999899, expected=    15.99930000

     total energy              =    -186.08124383 Ry
     estimated scf accuracy    <          5.6E-09 Ry
     electrostatic embedding   =      -0.01542779 Ry
     electrolyte free energy   =      -0.00003641 Ry
     correction to one-el term =       1.08305160 Ry

     iteration #  8     ecut=    20.00 Ry     beta= 0.70
     Davidson diagonalization with overlap
     ethr =  3.50E-11,  avg # of iterations =  1.0

     negative rho (up, down):  3.301E-03 0.000E+00

     add environment contribution to local potential

     total cpu time spent up to now is       88.1 secs

     WARNING: integrated charge=    15.99999969, expected=    15.99930000

     total energy              =    -186.08124414 Ry
     estimated scf accuracy    <          4.4E-09 Ry
     electrostatic embedding   =      -0.01542699 Ry
     electrolyte free energy   =      -0.00003636 Ry
     correction to one-el term =       1.08302800 Ry

     iteration #  9     ecut=    20.00 Ry     beta= 0.70
     Davidson diagonalization with overlap
     ethr =  2.76E-11,  avg # of iterations =  3.0

     negative rho (up, down):  3.301E-03 0.000E+00

     add environment contribution to local potential

     total cpu time spent up to now is       89.4 secs

     WARNING: integrated charge=    15.99999958, expected=    15.99930000

     total energy              =    -186.08124459 Ry
     estimated scf accuracy    <          2.0E-09 Ry
     electrostatic embedding   =      -0.01541720 Ry
     electrolyte free energy   =      -0.00003640 Ry
     correction to one-el term =       1.08365984 Ry

     iteration # 10     ecut=    20.00 Ry     beta= 0.70
     Davidson diagonalization with overlap
     ethr =  1.28E-11,  avg # of iterations =  2.0

     negative rho (up, down):  3.301E-03 0.000E+00

     add environment contribution to local potential

     total cpu time spent up to now is       90.5 secs

     WARNING: integrated charge=    16.00000012, expected=    15.99930000

     total energy              =    -186.08124473 Ry
     estimated scf accuracy    <          9.6E-10 Ry
     electrostatic embedding   =      -0.01541814 Ry
     electrolyte free energy   =      -0.00003641 Ry
     correction to one-el term =       1.08367042 Ry

     iteration # 11     ecut=    20.00 Ry     beta= 0.70
     Davidson diagonalization with overlap
     ethr =  6.01E-12,  avg # of iterations =  1.0

     negative rho (up, down):  3.301E-03 0.000E+00

     add environment contribution to local potential

     total cpu time spent up to now is       91.8 secs

     WARNING: integrated charge=    16.00000081, expected=    15.99930000

     total energy              =    -186.08124465 Ry
     estimated scf accuracy    <          4.7E-10 Ry
     electrostatic embedding   =      -0.01541826 Ry
     electrolyte free energy   =      -0.00003645 Ry
     correction to one-el term =       1.08367666 Ry

     iteration # 12     ecut=    20.00 Ry     beta= 0.70
     Davidson diagonalization with overlap
     ethr =  2.91E-12,  avg # of iterations =  4.0

     negative rho (up, down):  3.301E-03 0.000E+00

     add environment contribution to local potential

     total cpu time spent up to now is       93.0 secs

     WARNING: integrated charge=    16.00000042, expected=    15.99930000

     total energy              =    -186.08124486 Ry
     estimated scf accuracy    <          7.0E-10 Ry
     electrostatic embedding   =      -0.01541451 Ry
     electrolyte free energy   =      -0.00003641 Ry
     correction to one-el term =       1.08390264 Ry

     iteration # 13     ecut=    20.00 Ry     beta= 0.70
     Davidson diagonalization with overlap
     ethr =  2.91E-12,  avg # of iterations =  3.0

     negative rho (up, down):  3.301E-03 0.000E+00

     add environment contribution to local potential

     total cpu time spent up to now is       94.2 secs

     WARNING: integrated charge=    15.99999955, expected=    15.99930000

     total energy              =    -186.08124488 Ry
     estimated scf accuracy    <          2.4E-09 Ry
     electrostatic embedding   =      -0.01541472 Ry
     electrolyte free energy   =      -0.00003635 Ry
     correction to one-el term =       1.08383478 Ry

     iteration # 14     ecut=    20.00 Ry     beta= 0.70
     Davidson diagonalization with overlap
     ethr =  2.91E-12,  avg # of iterations =  2.0

     negative rho (up, down):  3.301E-03 0.000E+00

     add environment contribution to local potential

     total cpu time spent up to now is       95.4 secs

     WARNING: integrated charge=    15.99999978, expected=    15.99930000

     total energy              =    -186.08124485 Ry
     estimated scf accuracy    <          1.2E-09 Ry
     electrostatic embedding   =      -0.01541418 Ry
     electrolyte free energy   =      -0.00003640 Ry
     correction to one-el term =       1.08387603 Ry

     iteration # 15     ecut=    20.00 Ry     beta= 0.70
     Davidson diagonalization with overlap
     ethr =  2.91E-12,  avg # of iterations =  4.0

     negative rho (up, down):  3.301E-03 0.000E+00

     add environment contribution to local potential

     total cpu time spent up to now is       96.7 secs

     WARNING: integrated charge=    16.00000001, expected=    15.99930000

     total energy              =    -186.08124522 Ry
     estimated scf accuracy    <          1.8E-11 Ry
     electrostatic embedding   =      -0.01541093 Ry
     electrolyte free energy   =      -0.00003641 Ry
     correction to one-el term =       1.08407048 Ry

     iteration # 16     ecut=    20.00 Ry     beta= 0.70
     Davidson diagonalization with overlap
     ethr =  1.15E-13,  avg # of iterations =  5.0

     negative rho (up, down):  3.301E-03 0.000E+00

     add environment contribution to local potential

     total cpu time spent up to now is       98.0 secs

     WARNING: integrated charge=    16.00000003, expected=    15.99930000

     total energy              =    -186.08124569 Ry
     estimated scf accuracy    <          6.0E-11 Ry
     electrostatic embedding   =      -0.01541028 Ry
     electrolyte free energy   =      -0.00003632 Ry
     correction to one-el term =       1.08402475 Ry

     iteration # 17     ecut=    20.00 Ry     beta= 0.70
     Davidson diagonalization with overlap
     ethr =  1.15E-13,  avg # of iterations =  5.0

     negative rho (up, down):  3.301E-03 0.000E+00

     add environment contribution to local potential

     total cpu time spent up to now is       99.2 secs

     WARNING: integrated charge=    16.00000000, expected=    15.99930000

     total energy              =    -186.08124566 Ry
     estimated scf accuracy    <          1.9E-11 Ry
     electrostatic embedding   =      -0.01540840 Ry
     electrolyte free energy   =      -0.00003639 Ry
     correction to one-el term =       1.08423559 Ry

     iteration # 18     ecut=    20.00 Ry     beta= 0.70
     Davidson diagonalization with overlap
     ethr =  1.15E-13,  avg # of iterations =  3.0

     negative rho (up, down):  3.301E-03 0.000E+00

     add environment contribution to local potential

     total cpu time spent up to now is      100.4 secs

     WARNING: integrated charge=    16.00000002, expected=    15.99930000

     total energy              =    -186.08124582 Ry
     estimated scf accuracy    <          1.7E-11 Ry
     electrostatic embedding   =      -0.01540805 Ry
     electrolyte free energy   =      -0.00003634 Ry
     correction to one-el term =       1.08420428 Ry

     iteration # 19     ecut=    20.00 Ry     beta= 0.70
     Davidson diagonalization with overlap
     ethr =  1.09E-13,  avg # of iterations =  4.0

     negative rho (up, down):  3.301E-03 0.000E+00

     add environment contribution to local potential

     total cpu time spent up to now is      101.6 secs

     WARNING: integrated charge=    16.00000001, expected=    15.99930000

     total energy              =    -186.08124586 Ry
     estimated scf accuracy    <          2.4E-12 Ry
     electrostatic embedding   =      -0.01540663 Ry
     electrolyte free energy   =      -0.00003636 Ry
     correction to one-el term =       1.08431706 Ry

     iteration # 20     ecut=    20.00 Ry     beta= 0.70
     Davidson diagonalization with overlap
     ethr =  1.00E-13,  avg # of iterations =  2.0

     negative rho (up, down):  3.301E-03 0.000E+00

     the potential shift due to the Gaussian-smeared nuclei is    -0.1033 ev

     total cpu time spent up to now is      102.7 secs

     End of self-consistent calculation

          k = 0.0000 0.0000 0.0000 (  5049 PWs)   bands (ev):

   -16.7274 -14.4884 -11.2452  -7.8308  -7.7914  -7.3476  -6.3968  -5.2781
    -4.6739  -4.1135  -3.9573  -2.8933

     the Fermi energy is    -5.2685 ev

     WARNING: integrated charge=    16.00000000, expected=    15.99930000

!    total energy              =    -186.08124586 Ry

     total all-electron energy =     -2319.464706 Ry
     estimated scf accuracy    <          4.1E-13 Ry
     smearing contrib. (-TS)   =       0.00000000 Ry
     internal energy E=F+TS    =    -186.08124586 Ry

     The total energy is F=E-TS. E is the sum of the following terms:
     one-electron contribution =    -416.37033515 Ry
     hartree contribution      =     209.53587677 Ry
     xc contribution           =     -24.25464685 Ry
     ewald contribution        =     186.30364135 Ry
     one-center paw contrib.   =    -142.36469863 Ry
     electrostatic embedding   =      -0.01540648 Ry
     electrolyte free energy   =      -0.00003639 Ry
     correction to one-el term =       1.08435951 Ry

     WARNING: you are using the parabolic pbc correction;
              the potential shift above must be added to 
              band and Fermi energies.

     convergence has been achieved in  20 iterations

     negative rho (up, down):  3.301E-03 0.000E+00

     ********************************************

     charge convergence step   =                1

     DFT fermi level           =      -5.26850336
     charge in surface states  =       0.00004509
     charge accuracy           <       0.00049000
     bulk/DFT fermi difference =       0.00744821
     DFT charge                =       0.00021000

     ********************************************

     charge density from previous step

     Check: negative core charge=   -0.000003

     negative rho (up, down):  3.301E-03 0.000E+00
     extrapolated charge   16.00000, renormalised to   15.99979

Environ Warning (1005): wrong integral of erfc function


     add environment contribution to local potential

     Forces acting on atoms (cartesian axes, Ry/au):

     atom    1 type  1   force =     0.00000000    0.00000000    0.01064617
     atom    2 type  1   force =     0.00000000    0.00000000   -0.01064617
     atom    3 type  1   force =     0.00000000    0.00000000    0.00126368
     atom    4 type  1   force =     0.00000000    0.00000000   -0.00126368

     Total force =     0.015162     Total SCF correction =     0.000001

     total cpu time spent up to now is      104.9 secs

     Self-consistent Calculation

     iteration #  1     ecut=    20.00 Ry     beta= 0.70
     Davidson diagonalization with overlap
     ethr =  1.00E-06,  avg # of iterations =  1.0

     Threshold (ethr) on eigenvalues was too large:
     Diagonalizing with lowered threshold

     Davidson diagonalization with overlap
     ethr =  2.07E-10,  avg # of iterations =  2.0

     negative rho (up, down):  3.301E-03 0.000E+00

     add environment contribution to local potential

     total cpu time spent up to now is      106.4 secs

     WARNING: integrated charge=    15.99993700, expected=    15.99979000

     total energy              =    -186.08124233 Ry
     estimated scf accuracy    <       0.00000003 Ry
     electrostatic embedding   =      -0.01538701 Ry
     electrolyte free energy   =      -0.00003812 Ry
     correction to one-el term =       1.08222992 Ry

     iteration #  2     ecut=    20.00 Ry     beta= 0.70
     Davidson diagonalization with overlap
     ethr =  2.06E-10,  avg # of iterations =  2.0

     negative rho (up, down):  3.301E-03 0.000E+00

     add environment contribution to local potential

     total cpu time spent up to now is      107.7 secs

     WARNING: integrated charge=    15.99999253, expected=    15.99979000

     total energy              =    -186.08124143 Ry
     estimated scf accuracy    <       0.00000001 Ry
     electrostatic embedding   =      -0.01540572 Ry
     electrolyte free energy   =      -0.00003804 Ry
     correction to one-el term =       1.08379601 Ry

     iteration #  3     ecut=    20.00 Ry     beta= 0.70
     Davidson diagonalization with overlap
     ethr =  7.96E-11,  avg # of iterations =  5.0

     negative rho (up, down):  3.301E-03 0.000E+00

     add environment contribution to local potential

     total cpu time spent up to now is      108.9 secs

     WARNING: integrated charge=    16.00000067, expected=    15.99979000

     total energy              =    -186.08124100 Ry
     estimated scf accuracy    <       0.00000007 Ry
     electrostatic embedding   =      -0.01540524 Ry
     electrolyte free energy   =      -0.00003800 Ry
     correction to one-el term =       1.08463597 Ry

     iteration #  4     ecut=    20.00 Ry     beta= 0.70
     Davidson diagonalization with overlap
     ethr =  7.96E-11,  avg # of iterations =  2.0

     negative rho (up, down):  3.301E-03 0.000E+00

     add environment contribution to local potential

     total cpu time spent up to now is      110.1 secs

     WARNING: integrated charge=    15.99999993, expected=    15.99979000

     total energy              =    -186.08124120 Ry
     estimated scf accuracy    <       0.00000001 Ry
     electrostatic embedding   =      -0.01540829 Ry
     electrolyte free energy   =      -0.00003798 Ry
     correction to one-el term =       1.08478693 Ry

     iteration #  5     ecut=    20.00 Ry     beta= 0.70
     Davidson diagonalization with overlap
     ethr =  7.96E-11,  avg # of iterations =  1.0

     negative rho (up, down):  3.301E-03 0.000E+00

     add environment contribution to local potential

     total cpu time spent up to now is      111.3 secs

     WARNING: integrated charge=    15.99999925, expected=    15.99979000

     total energy              =    -186.08124135 Ry
     estimated scf accuracy    <          5.2E-09 Ry
     electrostatic embedding   =      -0.01540868 Ry
     electrolyte free energy   =      -0.00003796 Ry
     correction to one-el term =       1.08477057 Ry

     iteration #  6     ecut=    20.00 Ry     beta= 0.70
     Davidson diagonalization with overlap
     ethr =  3.25E-11,  avg # of iterations =  4.0

     negative rho (up, down):  3.301E-03 0.000E+00

     add environment contribution to local potential

     total cpu time spent up to now is      112.5 secs

     WARNING: integrated charge=    15.99999951, expected=    15.99979000

     total energy              =    -186.08124161 Ry
     estimated scf accuracy    <          2.1E-10 Ry
     electrostatic embedding   =      -0.01540898 Ry
     electrolyte free energy   =      -0.00003791 Ry
     correction to one-el term =       1.08475673 Ry

     iteration #  7     ecut=    20.00 Ry     beta= 0.70
     Davidson diagonalization with overlap
     ethr =  1.29E-12,  avg # of iterations =  5.0

     negative rho (up, down):  3.301E-03 0.000E+00

     add environment contribution to local potential

     total cpu time spent up to now is      113.7 secs

     WARNING: integrated charge=    15.99999948, expected=    15.99979000

     total energy              =    -186.08124168 Ry
     estimated scf accuracy    <          4.8E-11 Ry
     electrostatic embedding   =      -0.01540837 Ry
     electrolyte free energy   =      -0.00003794 Ry
     correction to one-el term =       1.08482671 Ry

     iteration #  8     ecut=    20.00 Ry     beta= 0.70
     Davidson diagonalization with overlap
     ethr =  3.00E-13,  avg # of iterations =  5.0

     negative rho (up, down):  3.301E-03 0.000E+00

     add environment contribution to local potential

     total cpu time spent up to now is      115.0 secs

     WARNING: integrated charge=    15.99999989, expected=    15.99979000

     total energy              =    -186.08124169 Ry
     estimated scf accuracy    <          1.5E-10 Ry
     electrostatic embedding   =      -0.01540697 Ry
     electrolyte free energy   =      -0.00003799 Ry
     correction to one-el term =       1.08500665 Ry

     iteration #  9     ecut=    20.00 Ry     beta= 0.70
     Davidson diagonalization with overlap
     ethr =  3.00E-13,  avg # of iterations =  3.0

     negative rho (up, down):  3.301E-03 0.000E+00

     add environment contribution to local potential

     total cpu time spent up to now is      116.2 secs

     WARNING: integrated charge=    15.99999989, expected=    15.99979000

     total energy              =    -186.08124197 Ry
     estimated scf accuracy    <          5.1E-10 Ry
     electrostatic embedding   =      -0.01540661 Ry
     electrolyte free energy   =      -0.00003791 Ry
     correction to one-el term =       1.08496645 Ry

     iteration # 10     ecut=    20.00 Ry     beta= 0.70
     Davidson diagonalization with overlap
     ethr =  3.00E-13,  avg # of iterations =  4.0

     negative rho (up, down):  3.301E-03 0.000E+00

     add environment contribution to local potential

     total cpu time spent up to now is      117.4 secs

     WARNING: integrated charge=    16.00000009, expected=    15.99979000

     total energy              =    -186.08124199 Ry
     estimated scf accuracy    <          7.7E-10 Ry
     electrostatic embedding   =      -0.01540596 Ry
     electrolyte free energy   =      -0.00003794 Ry
     correction to one-el term =       1.08503772 Ry

     iteration # 11     ecut=    20.00 Ry     beta= 0.70
     Davidson diagonalization with overlap
     ethr =  3.00E-13,  avg # of iterations =  3.0

     negative rho (up, down):  3.301E-03 0.000E+00

     add environment contribution to local potential

     total cpu time spent up to now is      118.6 secs

     WARNING: integrated charge=    16.00000010, expected=    15.99979000

     total energy              =    -186.08124203 Ry
     estimated scf accuracy    <          2.8E-10 Ry
     electrostatic embedding   =      -0.01540548 Ry
     electrolyte free energy   =      -0.00003796 Ry
     correction to one-el term =       1.08508117 Ry

     iteration # 12     ecut=    20.00 Ry     beta= 0.70
     Davidson diagonalization with overlap
     ethr =  3.00E-13,  avg # of iterations =  5.0

     negative rho (up, down):  3.301E-03 0.000E+00

     add environment contribution to local potential

     total cpu time spent up to now is      119.9 secs

     WARNING: integrated charge=    16.00000013, expected=    15.99979000

     total energy              =    -186.08124204 Ry
     estimated scf accuracy    <          1.3E-11 Ry
     electrostatic embedding   =      -0.01540295 Ry
     electrolyte free energy   =      -0.00003799 Ry
     correction to one-el term =       1.08525847 Ry

     iteration # 13     ecut=    20.00 Ry     beta= 0.70
     Davidson diagonalization with overlap
     ethr =  1.00E-13,  avg # of iterations =  4.0

     negative rho (up, down):  3.301E-03 0.000E+00

     add environment contribution to local potential

     total cpu time spent up to now is      121.2 secs

     WARNING: integrated charge=    16.00000000, expected=    15.99979000

     total energy              =    -186.08124220 Ry
     estimated scf accuracy    <          6.3E-11 Ry
     electrostatic embedding   =      -0.01540171 Ry
     electrolyte free energy   =      -0.00003796 Ry
     correction to one-el term =       1.08530371 Ry

     iteration # 14     ecut=    20.00 Ry     beta= 0.70
     Davidson diagonalization with overlap
     ethr =  1.00E-13,  avg # of iterations =  4.0

     negative rho (up, down):  3.301E-03 0.000E+00

     add environment contribution to local potential

     total cpu time spent up to now is      122.4 secs

     WARNING: integrated charge=    16.00000002, expected=    15.99979000

     total energy              =    -186.08124214 Ry
     estimated scf accuracy    <          8.1E-12 Ry
     electrostatic embedding   =      -0.01540229 Ry
     electrolyte free energy   =      -0.00003800 Ry
     correction to one-el term =       1.08530080 Ry

     iteration # 15     ecut=    20.00 Ry     beta= 0.70
     Davidson diagonalization with overlap
     ethr =  1.00E-13,  avg # of iterations =  3.0

     negative rho (up, down):  3.301E-03 0.000E+00

     add environment contribution to local potential

     total cpu time spent up to now is      123.5 secs

     WARNING: integrated charge=    16.00000000, expected=    15.99979000

     total energy              =    -186.08124232 Ry
     estimated scf accuracy    <          1.3E-11 Ry
     electrostatic embedding   =      -0.01540217 Ry
     electrolyte free energy   =      -0.00003802 Ry
     correction to one-el term =       1.08533394 Ry

     iteration # 16     ecut=    20.00 Ry     beta= 0.70
     Davidson diagonalization with overlap
     ethr =  1.00E-13,  avg # of iterations =  3.0

     negative rho (up, down):  3.301E-03 0.000E+00

     add environment contribution to local potential

     total cpu time spent up to now is      124.8 secs

     WARNING: integrated charge=    16.00000000, expected=    15.99979000

     total energy              =    -186.08124239 Ry
     estimated scf accuracy    <          1.6E-12 Ry
     electrostatic embedding   =      -0.01540275 Ry
     electrolyte free energy   =      -0.00003786 Ry
     correction to one-el term =       1.08513753 Ry

     iteration # 17     ecut=    20.00 Ry     beta= 0.70
     Davidson diagonalization with overlap
     ethr =  1.00E-13,  avg # of iterations =  4.0

     negative rho (up, down):  3.301E-03 0.000E+00

     add environment contribution to local potential

     total cpu time spent up to now is      125.9 secs

     WARNING: integrated charge=    16.00000000, expected=    15.99979000

     total energy              =    -186.08124245 Ry
     estimated scf accuracy    <          1.2E-12 Ry
     electrostatic embedding   =      -0.01540157 Ry
     electrolyte free energy   =      -0.00003796 Ry
     correction to one-el term =       1.08531711 Ry

     iteration # 18     ecut=    20.00 Ry     beta= 0.70
     Davidson diagonalization with overlap
     ethr =  1.00E-13,  avg # of iterations =  2.0

     negative rho (up, down):  3.301E-03 0.000E+00

     add environment contribution to local potential

     total cpu time spent up to now is      127.1 secs

     WARNING: integrated charge=    16.00000000, expected=    15.99979000

     total energy              =    -186.08124232 Ry
     estimated scf accuracy    <          1.3E-12 Ry
     electrostatic embedding   =      -0.01540165 Ry
     electrolyte free energy   =      -0.00003794 Ry
     correction to one-el term =       1.08529557 Ry

     iteration # 19     ecut=    20.00 Ry     beta= 0.70
     Davidson diagonalization with overlap
     ethr =  1.00E-13,  avg # of iterations =  2.0

     negative rho (up, down):  3.301E-03 0.000E+00

     the potential shift due to the Gaussian-smeared nuclei is    -0.1033 ev

     total cpu time spent up to now is      128.2 secs

     End of self-consistent calculation

          k = 0.0000 0.0000 0.0000 (  5049 PWs)   bands (ev):

   -16.7283 -14.4893 -11.2461  -7.8317  -7.7923  -7.3485  -6.3977  -5.2790
    -4.6748  -4.1144  -3.9582  -2.8941

     the Fermi energy is    -5.2695 ev

     WARNING: integrated charge=    16.00000000, expected=    15.99979000

!    total energy              =    -186.08124228 Ry

     total all-electron energy =     -2319.464702 Ry
     estimated scf accuracy    <          3.7E-14 Ry
     smearing contrib. (-TS)   =       0.00000000 Ry
     internal energy E=F+TS    =    -186.08124228 Ry

     The total energy is F=E-TS. E is the sum of the following terms:
     one-electron contribution =    -416.37138241 Ry
     hartree contribution      =     209.53587668 Ry
     xc contribution           =     -24.25464688 Ry
     ewald contribution        =     186.30364135 Ry
     one-center paw contrib.   =    -142.36469860 Ry
     electrostatic embedding   =      -0.01540133 Ry
     electrolyte free energy   =      -0.00003804 Ry
     correction to one-el term =       1.08540694 Ry

     WARNING: you are using the parabolic pbc correction;
              the potential shift above must be added to 
              band and Fermi energies.

     convergence has been achieved in  19 iterations

     negative rho (up, down):  3.301E-03 0.000E+00

     ********************************************

     charge convergence step   =                2

     DFT fermi level           =      -5.26950117
     charge in surface states  =       0.00006223
     charge accuracy           <       0.00003734
     bulk/DFT fermi difference =      -0.00061437
     DFT charge                =       0.00024734

     ********************************************

     charge density from previous step

     Check: negative core charge=   -0.000003

     negative rho (up, down):  3.301E-03 0.000E+00
     extrapolated charge   16.00000, renormalised to   15.99975

Environ Warning (1005): wrong integral of erfc function


     add environment contribution to local potential

     Forces acting on atoms (cartesian axes, Ry/au):

     atom    1 type  1   force =     0.00000000    0.00000000    0.01070413
     atom    2 type  1   force =     0.00000000    0.00000000   -0.01070413
     atom    3 type  1   force =     0.00000000    0.00000000    0.00124488
     atom    4 type  1   force =     0.00000000    0.00000000   -0.00124488

     Total force =     0.015240     Total SCF correction =     0.000000

     total cpu time spent up to now is      130.8 secs

     Self-consistent Calculation

     iteration #  1     ecut=    20.00 Ry     beta= 0.70
     Davidson diagonalization with overlap
     ethr =  1.00E-06,  avg # of iterations =  1.0

     Threshold (ethr) on eigenvalues was too large:
     Diagonalizing with lowered threshold

     Davidson diagonalization with overlap
     ethr =  2.89E-10,  avg # of iterations =  1.0

     negative rho (up, down):  3.301E-03 0.000E+00

     add environment contribution to local potential

     total cpu time spent up to now is      132.4 secs

     WARNING: integrated charge=    15.99992580, expected=    15.99975266

     total energy              =    -186.08124251 Ry
     estimated scf accuracy    <       0.00000005 Ry
     electrostatic embedding   =      -0.01538477 Ry
     electrolyte free energy   =      -0.00003808 Ry
     correction to one-el term =       1.08163494 Ry

     iteration #  2     ecut=    20.00 Ry     beta= 0.70
     Davidson diagonalization with overlap
     ethr =  2.87E-10,  avg # of iterations =  2.0

     negative rho (up, down):  3.301E-03 0.000E+00

     add environment contribution to local potential

     total cpu time spent up to now is      133.6 secs

     WARNING: integrated charge=    15.99998892, expected=    15.99975266

     total energy              =    -186.08124157 Ry
     estimated scf accuracy    <       0.00000002 Ry
     electrostatic embedding   =      -0.01540632 Ry
     electrolyte free energy   =      -0.00003795 Ry
     correction to one-el term =       1.08350492 Ry

     iteration #  3     ecut=    20.00 Ry     beta= 0.70
     Davidson diagonalization with overlap
     ethr =  1.19E-10,  avg # of iterations =  4.0

     negative rho (up, down):  3.301E-03 0.000E+00

     add environment contribution to local potential

     total cpu time spent up to now is      134.9 secs

     WARNING: integrated charge=    16.00000123, expected=    15.99975266

     total energy              =    -186.08124103 Ry
     estimated scf accuracy    <       0.00000010 Ry
     electrostatic embedding   =      -0.01540530 Ry
     electrolyte free energy   =      -0.00003790 Ry
     correction to one-el term =       1.08446723 Ry

     iteration #  4     ecut=    20.00 Ry     beta= 0.70
     Davidson diagonalization with overlap
     ethr =  1.19E-10,  avg # of iterations =  2.0

     negative rho (up, down):  3.301E-03 0.000E+00

     add environment contribution to local potential

     total cpu time spent up to now is      136.1 secs

     WARNING: integrated charge=    15.99999946, expected=    15.99975266

     total energy              =    -186.08124135 Ry
     estimated scf accuracy    <       0.00000002 Ry
     electrostatic embedding   =      -0.01540916 Ry
     electrolyte free energy   =      -0.00003788 Ry
     correction to one-el term =       1.08468798 Ry

     iteration #  5     ecut=    20.00 Ry     beta= 0.70
     Davidson diagonalization with overlap
     ethr =  1.19E-10,  avg # of iterations =  2.0

     negative rho (up, down):  3.301E-03 0.000E+00

     add environment contribution to local potential

     total cpu time spent up to now is      137.3 secs

     WARNING: integrated charge=    15.99999932, expected=    15.99975266

     total energy              =    -186.08124154 Ry
     estimated scf accuracy    <          5.2E-09 Ry
     electrostatic embedding   =      -0.01540969 Ry
     electrolyte free energy   =      -0.00003789 Ry
     correction to one-el term =       1.08470461 Ry

     iteration #  6     ecut=    20.00 Ry     beta= 0.70
     Davidson diagonalization with overlap
     ethr =  3.28E-11,  avg # of iterations =  4.0

     negative rho (up, down):  3.301E-03 0.000E+00

     add environment contribution to local potential

     total cpu time spent up to now is      138.5 secs

     WARNING: integrated charge=    15.99999961, expected=    15.99975266

     total energy              =    -186.08124178 Ry
     estimated scf accuracy    <          2.2E-10 Ry
     electrostatic embedding   =      -0.01540987 Ry
     electrolyte free energy   =      -0.00003783 Ry
     correction to one-el term =       1.08469411 Ry

     iteration #  7     ecut=    20.00 Ry     beta= 0.70
     Davidson diagonalization with overlap
     ethr =  1.40E-12,  avg # of iterations =  4.0

     negative rho (up, down):  3.301E-03 0.000E+00

     add environment contribution to local potential

     total cpu time spent up to now is      139.7 secs

     WARNING: integrated charge=    15.99999969, expected=    15.99975266

     total energy              =    -186.08124178 Ry
     estimated scf accuracy    <          3.5E-10 Ry
     electrostatic embedding   =      -0.01540951 Ry
     electrolyte free energy   =      -0.00003787 Ry
     correction to one-el term =       1.08474192 Ry

     iteration #  8     ecut=    20.00 Ry     beta= 0.70
     Davidson diagonalization with overlap
     ethr =  1.40E-12,  avg # of iterations =  5.0

     negative rho (up, down):  3.301E-03 0.000E+00

     add environment contribution to local potential

     total cpu time spent up to now is      141.0 secs

     WARNING: integrated charge=    15.99999983, expected=    15.99975266

     total energy              =    -186.08124190 Ry
     estimated scf accuracy    <          8.7E-10 Ry
     electrostatic embedding   =      -0.01540844 Ry
     electrolyte free energy   =      -0.00003785 Ry
     correction to one-el term =       1.08479853 Ry

     iteration #  9     ecut=    20.00 Ry     beta= 0.70
     Davidson diagonalization with overlap
     ethr =  1.40E-12,  avg # of iterations =  4.0

     negative rho (up, down):  3.301E-03 0.000E+00

     add environment contribution to local potential

     total cpu time spent up to now is      142.1 secs

     WARNING: integrated charge=    15.99999985, expected=    15.99975266

     total energy              =    -186.08124196 Ry
     estimated scf accuracy    <          5.0E-10 Ry
     electrostatic embedding   =      -0.01540729 Ry
     electrolyte free energy   =      -0.00003788 Ry
     correction to one-el term =       1.08497485 Ry

     iteration # 10     ecut=    20.00 Ry     beta= 0.70
     Davidson diagonalization with overlap
     ethr =  1.40E-12,  avg # of iterations =  4.0

     negative rho (up, down):  3.301E-03 0.000E+00

     add environment contribution to local potential

     total cpu time spent up to now is      143.4 secs

     WARNING: integrated charge=    15.99999995, expected=    15.99975266

     total energy              =    -186.08124195 Ry
     estimated scf accuracy    <          2.0E-09 Ry
     electrostatic embedding   =      -0.01540750 Ry
     electrolyte free energy   =      -0.00003785 Ry
     correction to one-el term =       1.08494469 Ry

     iteration # 11     ecut=    20.00 Ry     beta= 0.70
     Davidson diagonalization with overlap
     ethr =  1.40E-12,  avg # of iterations =  3.0

     negative rho (up, down):  3.301E-03 0.000E+00

     add environment contribution to local potential

     total cpu time spent up to now is      144.6 secs

     WARNING: integrated charge=    16.00000007, expected=    15.99975266

     total energy              =    -186.08124229 Ry
     estimated scf accuracy    <          1.2E-10 Ry
     electrostatic embedding   =      -0.01540646 Ry
     electrolyte free energy   =      -0.00003780 Ry
     correction to one-el term =       1.08491358 Ry

     iteration # 12     ecut=    20.00 Ry     beta= 0.70
     Davidson diagonalization with overlap
     ethr =  7.67E-13,  avg # of iterations =  4.0

     negative rho (up, down):  3.301E-03 0.000E+00

     add environment contribution to local potential

     total cpu time spent up to now is      145.9 secs

     WARNING: integrated charge=    16.00000018, expected=    15.99975266

     total energy              =    -186.08124224 Ry
     estimated scf accuracy    <          7.1E-12 Ry
     electrostatic embedding   =      -0.01540446 Ry
     electrolyte free energy   =      -0.00003786 Ry
     correction to one-el term =       1.08510977 Ry

     iteration # 13     ecut=    20.00 Ry     beta= 0.70
     Davidson diagonalization with overlap
     ethr =  1.00E-13,  avg # of iterations =  4.0

     negative rho (up, down):  3.301E-03 0.000E+00

     add environment contribution to local potential

     total cpu time spent up to now is      147.1 secs

     WARNING: integrated charge=    16.00000011, expected=    15.99975266

     total energy              =    -186.08124244 Ry
     estimated scf accuracy    <          3.2E-11 Ry
     electrostatic embedding   =      -0.01540392 Ry
     electrolyte free energy   =      -0.00003781 Ry
     correction to one-el term =       1.08508993 Ry

     iteration # 14     ecut=    20.00 Ry     beta= 0.70
     Davidson diagonalization with overlap
     ethr =  1.00E-13,  avg # of iterations =  5.0

     negative rho (up, down):  3.301E-03 0.000E+00

     add environment contribution to local potential

     total cpu time spent up to now is      148.4 secs

     WARNING: integrated charge=    16.00000009, expected=    15.99975266

     total energy              =    -186.08124246 Ry
     estimated scf accuracy    <          2.6E-11 Ry
     electrostatic embedding   =      -0.01540280 Ry
     electrolyte free energy   =      -0.00003784 Ry
     correction to one-el term =       1.08519939 Ry

     iteration # 15     ecut=    20.00 Ry     beta= 0.70
     Davidson diagonalization with overlap
     ethr =  1.00E-13,  avg # of iterations =  5.0

     negative rho (up, down):  3.301E-03 0.000E+00

     add environment contribution to local potential

     total cpu time spent up to now is      149.7 secs

     WARNING: integrated charge=    16.00000005, expected=    15.99975266

     total energy              =    -186.08124259 Ry
     estimated scf accuracy    <          1.6E-11 Ry
     electrostatic embedding   =      -0.01540068 Ry
     electrolyte free energy   =      -0.00003785 Ry
     correction to one-el term =       1.08534229 Ry

     iteration # 16     ecut=    20.00 Ry     beta= 0.70
     Davidson diagonalization with overlap
     ethr =  1.00E-13,  avg # of iterations =  5.0

     negative rho (up, down):  3.301E-03 0.000E+00

     add environment contribution to local potential

     total cpu time spent up to now is      150.9 secs

     WARNING: integrated charge=    16.00000005, expected=    15.99975266

     total energy              =    -186.08124274 Ry
     estimated scf accuracy    <          1.6E-12 Ry
     electrostatic embedding   =      -0.01540216 Ry
     electrolyte free energy   =      -0.00003783 Ry
     correction to one-el term =       1.08521861 Ry

     iteration # 17     ecut=    20.00 Ry     beta= 0.70
     Davidson diagonalization with overlap
     ethr =  1.00E-13,  avg # of iterations =  2.0

     negative rho (up, down):  3.301E-03 0.000E+00

     add environment contribution to local potential

     total cpu time spent up to now is      152.0 secs

     WARNING: integrated charge=    16.00000006, expected=    15.99975266

     total energy              =    -186.08124281 Ry
     estimated scf accuracy    <          3.0E-12 Ry
     electrostatic embedding   =      -0.01540196 Ry
     electrolyte free energy   =      -0.00003787 Ry
     correction to one-el term =       1.08527151 Ry

     iteration # 18     ecut=    20.00 Ry     beta= 0.70
[...]
     electrostatic embedding   =      -0.01540191 Ry
     electrolyte free energy   =      -0.00003786 Ry
     correction to one-el term =       1.08527122 Ry

     iteration # 22     ecut=    20.00 Ry     beta= 0.70
     Davidson diagonalization with overlap
     ethr =  1.00E-13,  avg # of iterations =  2.0

     negative rho (up, down):  3.301E-03 0.000E+00

     add environment contribution to local potential

     total cpu time spent up to now is      157.8 secs

     WARNING: integrated charge=    16.00000000, expected=    15.99975266

     total energy              =    -186.08124277 Ry
     estimated scf accuracy    <          2.3E-12 Ry
     electrostatic embedding   =      -0.01540184 Ry
     electrolyte free energy   =      -0.00003789 Ry
     correction to one-el term =       1.08530213 Ry

     iteration # 23     ecut=    20.00 Ry     beta= 0.70
     Davidson diagonalization with overlap
     ethr =  1.00E-13,  avg # of iterations =  2.0

     negative rho (up, down):  3.301E-03 0.000E+00

     the potential shift due to the Gaussian-smeared nuclei is    -0.1033 ev

     total cpu time spent up to now is      158.9 secs

     End of self-consistent calculation

          k = 0.0000 0.0000 0.0000 (  5049 PWs)   bands (ev):

   -16.7282 -14.4891 -11.2459  -7.8316  -7.7922  -7.3483  -6.3975  -5.2788
    -4.6746  -4.1143  -3.9581  -2.8940

     the Fermi energy is    -5.2693 ev

     WARNING: integrated charge=    16.00000000, expected=    15.99975266

!    total energy              =    -186.08124287 Ry

     total all-electron energy =     -2319.464703 Ry
     estimated scf accuracy    <          5.6E-13 Ry
     smearing contrib. (-TS)   =       0.00000000 Ry
     internal energy E=F+TS    =    -186.08124287 Ry

     The total energy is F=E-TS. E is the sum of the following terms:
     one-electron contribution =    -416.37116506 Ry
     hartree contribution      =     209.53586443 Ry
     xc contribution           =     -24.25464642 Ry
     ewald contribution        =     186.30364135 Ry
     one-center paw contrib.   =    -142.36469859 Ry
     electrostatic embedding   =      -0.01540211 Ry
     electrolyte free energy   =      -0.00003780 Ry
     correction to one-el term =       1.08520133 Ry

     WARNING: you are using the parabolic pbc correction;
              the potential shift above must be added to 
              band and Fermi energies.

     convergence has been achieved in  23 iterations

     negative rho (up, down):  3.301E-03 0.000E+00

     ********************************************

     charge convergence step   =                3

     DFT fermi level           =      -5.26934157
     charge in surface states  =       0.00006051
     charge accuracy           <       0.00001253
     bulk/DFT fermi difference =       0.00031016
     DFT charge                =       0.00023481

     ********************************************

     charge density from previous step

     Check: negative core charge=   -0.000003

     negative rho (up, down):  3.301E-03 0.000E+00
     extrapolated charge   16.00000, renormalised to   15.99977

Environ Warning (1005): wrong integral of erfc function


     add environment contribution to local potential

     Forces acting on atoms (cartesian axes, Ry/au):

     atom    1 type  1   force =     0.00000000    0.00000000    0.01069978
     atom    2 type  1   force =     0.00000000    0.00000000   -0.01069978
     atom    3 type  1   force =     0.00000000    0.00000000    0.00124610
     atom    4 type  1   force =     0.00000000    0.00000000   -0.00124610

     Total force =     0.015234     Total SCF correction =     0.000001

     total cpu time spent up to now is      161.0 secs

     Self-consistent Calculation

     iteration #  1     ecut=    20.00 Ry     beta= 0.70
     Davidson diagonalization with overlap
     ethr =  1.00E-06,  avg # of iterations =  1.0

     Threshold (ethr) on eigenvalues was too large:
     Diagonalizing with lowered threshold

     Davidson diagonalization with overlap
     ethr =  2.64E-10,  avg # of iterations =  1.0

     negative rho (up, down):  3.301E-03 0.000E+00

     add environment contribution to local potential

     total cpu time spent up to now is      162.6 secs

     WARNING: integrated charge=    15.99992956, expected=    15.99976519

     total energy              =    -186.08124244 Ry
     estimated scf accuracy    <       0.00000004 Ry
     electrostatic embedding   =      -0.01538543 Ry
     electrolyte free energy   =      -0.00003810 Ry
     correction to one-el term =       1.08185318 Ry

     iteration #  2     ecut=    20.00 Ry     beta= 0.70
     Davidson diagonalization with overlap
     ethr =  2.63E-10,  avg # of iterations =  2.0

     negative rho (up, down):  3.301E-03 0.000E+00

     add environment contribution to local potential

     total cpu time spent up to now is      163.9 secs

     WARNING: integrated charge=    15.99999358, expected=    15.99976519

     total energy              =    -186.08124154 Ry
     estimated scf accuracy    <       0.00000002 Ry
     electrostatic embedding   =      -0.01540582 Ry
     electrolyte free energy   =      -0.00003798 Ry
     correction to one-el term =       1.08361312 Ry

     iteration #  3     ecut=    20.00 Ry     beta= 0.70
     Davidson diagonalization with overlap
     ethr =  9.80E-11,  avg # of iterations =  5.0

     negative rho (up, down):  3.301E-03 0.000E+00

     add environment contribution to local potential

     total cpu time spent up to now is      165.1 secs

     WARNING: integrated charge=    16.00000096, expected=    15.99976519

     total energy              =    -186.08124103 Ry
     estimated scf accuracy    <       0.00000010 Ry
     electrostatic embedding   =      -0.01540519 Ry
     electrolyte free energy   =      -0.00003793 Ry
     correction to one-el term =       1.08458661 Ry

     iteration #  4     ecut=    20.00 Ry     beta= 0.70
     Davidson diagonalization with overlap
     ethr =  9.80E-11,  avg # of iterations =  2.0

     negative rho (up, down):  3.301E-03 0.000E+00

     add environment contribution to local potential

     total cpu time spent up to now is      166.3 secs

     WARNING: integrated charge=    16.00000010, expected=    15.99976519

     total energy              =    -186.08124132 Ry
     estimated scf accuracy    <       0.00000002 Ry
     electrostatic embedding   =      -0.01540865 Ry
     electrolyte free energy   =      -0.00003792 Ry
     correction to one-el term =       1.08473818 Ry

     iteration #  5     ecut=    20.00 Ry     beta= 0.70
     Davidson diagonalization with overlap
     ethr =  9.80E-11,  avg # of iterations =  2.0

     negative rho (up, down):  3.301E-03 0.000E+00

     add environment contribution to local potential

     total cpu time spent up to now is      167.5 secs

     WARNING: integrated charge=    15.99999932, expected=    15.99976519

     total energy              =    -186.08124152 Ry
     estimated scf accuracy    <          7.5E-09 Ry
     electrostatic embedding   =      -0.01540912 Ry
     electrolyte free energy   =      -0.00003787 Ry
     correction to one-el term =       1.08468796 Ry

     iteration #  6     ecut=    20.00 Ry     beta= 0.70
     Davidson diagonalization with overlap
     ethr =  4.71E-11,  avg # of iterations =  2.0

     negative rho (up, down):  3.301E-03 0.000E+00

     add environment contribution to local potential

     total cpu time spent up to now is      168.7 secs

     WARNING: integrated charge=    15.99999981, expected=    15.99976519

     total energy              =    -186.08124169 Ry
     estimated scf accuracy    <          3.1E-09 Ry
     electrostatic embedding   =      -0.01540934 Ry
     electrolyte free energy   =      -0.00003787 Ry
     correction to one-el term =       1.08470387 Ry

     iteration #  7     ecut=    20.00 Ry     beta= 0.70
     Davidson diagonalization with overlap
     ethr =  1.92E-11,  avg # of iterations =  4.0

     negative rho (up, down):  3.301E-03 0.000E+00

     add environment contribution to local potential

     total cpu time spent up to now is      169.9 secs

     WARNING: integrated charge=    15.99999978, expected=    15.99976519

     total energy              =    -186.08124181 Ry
     estimated scf accuracy    <          9.2E-11 Ry
     electrostatic embedding   =      -0.01540883 Ry
     electrolyte free energy   =      -0.00003790 Ry
     correction to one-el term =       1.08484662 Ry

     iteration #  8     ecut=    20.00 Ry     beta= 0.70
     Davidson diagonalization with overlap
     ethr =  5.78E-13,  avg # of iterations =  5.0

     negative rho (up, down):  3.301E-03 0.000E+00

     add environment contribution to local potential

     total cpu time spent up to now is      171.1 secs

     WARNING: integrated charge=    15.99999976, expected=    15.99976519

     total energy              =    -186.08124194 Ry
     estimated scf accuracy    <          1.6E-09 Ry
     electrostatic embedding   =      -0.01540871 Ry
     electrolyte free energy   =      -0.00003785 Ry
     correction to one-el term =       1.08483683 Ry

     iteration #  9     ecut=    20.00 Ry     beta= 0.70
     Davidson diagonalization with overlap
     ethr =  5.78E-13,  avg # of iterations =  2.0

     negative rho (up, down):  3.301E-03 0.000E+00

     add environment contribution to local potential

     total cpu time spent up to now is      172.3 secs

     WARNING: integrated charge=    16.00000000, expected=    15.99976519

     total energy              =    -186.08124201 Ry
     estimated scf accuracy    <          1.3E-09 Ry
     electrostatic embedding   =      -0.01540830 Ry
     electrolyte free energy   =      -0.00003787 Ry
     correction to one-el term =       1.08486937 Ry

     iteration # 10     ecut=    20.00 Ry     beta= 0.70
     Davidson diagonalization with overlap
     ethr =  5.78E-13,  avg # of iterations =  6.0

     negative rho (up, down):  3.301E-03 0.000E+00

     add environment contribution to local potential

     total cpu time spent up to now is      173.6 secs

     WARNING: integrated charge=    16.00000010, expected=    15.99976519

     total energy              =    -186.08124201 Ry
     estimated scf accuracy    <          7.3E-11 Ry
     electrostatic embedding   =      -0.01540502 Ry
     electrolyte free energy   =      -0.00003791 Ry
     correction to one-el term =       1.08510080 Ry

     iteration # 11     ecut=    20.00 Ry     beta= 0.70
     Davidson diagonalization with overlap
     ethr =  4.53E-13,  avg # of iterations =  2.0

     negative rho (up, down):  3.301E-03 0.000E+00

     add environment contribution to local potential

     total cpu time spent up to now is      174.7 secs

     WARNING: integrated charge=    16.00000004, expected=    15.99976519

     total energy              =    -186.08124207 Ry
     estimated scf accuracy    <          1.6E-10 Ry
     electrostatic embedding   =      -0.01540481 Ry
     electrolyte free energy   =      -0.00003795 Ry
     correction to one-el term =       1.08514095 Ry

     iteration # 12     ecut=    20.00 Ry     beta= 0.70
     Davidson diagonalization with overlap
     ethr =  4.53E-13,  avg # of iterations =  2.0

     negative rho (up, down):  3.301E-03 0.000E+00

     add environment contribution to local potential

     total cpu time spent up to now is      175.9 secs

     WARNING: integrated charge=    16.00000004, expected=    15.99976519

     total energy              =    -186.08124237 Ry
     estimated scf accuracy    <          1.2E-10 Ry
     electrostatic embedding   =      -0.01540482 Ry
     electrolyte free energy   =      -0.00003783 Ry
     correction to one-el term =       1.08502436 Ry

     iteration # 13     ecut=    20.00 Ry     beta= 0.70
     Davidson diagonalization with overlap
     ethr =  4.53E-13,  avg # of iterations =  4.0

     negative rho (up, down):  3.301E-03 0.000E+00

     add environment contribution to local potential

     total cpu time spent up to now is      177.1 secs

     WARNING: integrated charge=    16.00000014, expected=    15.99976519

     total energy              =    -186.08124245 Ry
     estimated scf accuracy    <          8.0E-11 Ry
     electrostatic embedding   =      -0.01540345 Ry
     electrolyte free energy   =      -0.00003788 Ry
     correction to one-el term =       1.08518893 Ry

     iteration # 14     ecut=    20.00 Ry     beta= 0.70
     Davidson diagonalization with overlap
     ethr =  4.53E-13,  avg # of iterations =  2.0

     negative rho (up, down):  3.301E-03 0.000E+00

     add environment contribution to local potential

     total cpu time spent up to now is      178.3 secs

     WARNING: integrated charge=    16.00000016, expected=    15.99976519

     total energy              =    -186.08124241 Ry
     estimated scf accuracy    <          1.9E-11 Ry
     electrostatic embedding   =      -0.01540317 Ry
     electrolyte free energy   =      -0.00003788 Ry
     correction to one-el term =       1.08519553 Ry

     iteration # 15     ecut=    20.00 Ry     beta= 0.70
     Davidson diagonalization with overlap
     ethr =  1.19E-13,  avg # of iterations =  4.0

     negative rho (up, down):  3.301E-03 0.000E+00

     add environment contribution to local potential

     total cpu time spent up to now is      179.5 secs

     WARNING: integrated charge=    16.00000003, expected=    15.99976519

     total energy              =    -186.08124243 Ry
     estimated scf accuracy    <          2.7E-11 Ry
     electrostatic embedding   =      -0.01540208 Ry
     electrolyte free energy   =      -0.00003787 Ry
     correction to one-el term =       1.08524673 Ry

     iteration # 16     ecut=    20.00 Ry     beta= 0.70
     Davidson diagonalization with overlap
     ethr =  1.19E-13,  avg # of iterations =  3.0

     negative rho (up, down):  3.301E-03 0.000E+00

     add environment contribution to local potential

     total cpu time spent up to now is      180.7 secs

     WARNING: integrated charge=    16.00000000, expected=    15.99976519

     total energy              =    -186.08124237 Ry
     estimated scf accuracy    <          3.3E-12 Ry
     electrostatic embedding   =      -0.01540230 Ry
     electrolyte free energy   =      -0.00003783 Ry
     correction to one-el term =       1.08518706 Ry

     iteration # 17     ecut=    20.00 Ry     beta= 0.70
     Davidson diagonalization with overlap
     ethr =  1.00E-13,  avg # of iterations =  3.0

     negative rho (up, down):  3.301E-03 0.000E+00

     add environment contribution to local potential

     total cpu time spent up to now is      181.9 secs

     WARNING: integrated charge=    16.00000001, expected=    15.99976519

     total energy              =    -186.08124236 Ry
     estimated scf accuracy    <          2.7E-12 Ry
     electrostatic embedding   =      -0.01540192 Ry
     electrolyte free energy   =      -0.00003794 Ry
     correction to one-el term =       1.08531688 Ry

     iteration # 18     ecut=    20.00 Ry     beta= 0.70
     Davidson diagonalization with overlap
     ethr =  1.00E-13,  avg # of iterations =  2.0

     negative rho (up, down):  3.301E-03 0.000E+00

     the potential shift due to the Gaussian-smeared nuclei is    -0.1033 ev

     total cpu time spent up to now is      183.0 secs

     End of self-consistent calculation

          k = 0.0000 0.0000 0.0000 (  5049 PWs)   bands (ev):

   -16.7282 -14.4891 -11.2459  -7.8316  -7.7922  -7.3483  -6.3975  -5.2788
    -4.6746  -4.1143  -3.9581  -2.8940

     the Fermi energy is    -5.2693 ev

     WARNING: integrated charge=    16.00000000, expected=    15.99976519

!    total energy              =    -186.08124241 Ry

     total all-electron energy =     -2319.464702 Ry
     estimated scf accuracy    <          7.1E-13 Ry
     smearing contrib. (-TS)   =       0.00000000 Ry
     internal energy E=F+TS    =    -186.08124241 Ry

     The total energy is F=E-TS. E is the sum of the following terms:
     one-electron contribution =    -416.37115224 Ry
     hartree contribution      =     209.53585209 Ry
     xc contribution           =     -24.25464712 Ry
     ewald contribution        =     186.30364135 Ry
     one-center paw contrib.   =    -142.36469864 Ry
     electrostatic embedding   =      -0.01540225 Ry
     electrolyte free energy   =      -0.00003784 Ry
     correction to one-el term =       1.08520223 Ry

     WARNING: you are using the parabolic pbc correction;
              the potential shift above must be added to 
              band and Fermi energies.

     convergence has been achieved in  18 iterations

     negative rho (up, down):  3.301E-03 0.000E+00

     ********************************************

     charge convergence step   =                4

     converged charge accuracy <       0.00000604
     charge in surface states  =       0.00006163
     bulk/DFT fermi difference =      -0.00028925
     final potential (V)       =      -0.22905870
     output written to q-v.dat

     ********************************************


     Forces acting on atoms (cartesian axes, Ry/au):

     atom    1 type  1   force =     0.00000000    0.00000000    0.01070095
     atom    2 type  1   force =     0.00000000    0.00000000   -0.01070095
     atom    3 type  1   force =     0.00000000    0.00000000    0.00124553
     atom    4 type  1   force =     0.00000000    0.00000000   -0.00124553

     Total force =     0.015236     Total SCF correction =     0.000001

     Writing all to output data dir ./Si.save/
 
     init_run     :      1.29s CPU      1.51s WALL (       1 calls)
     electrons    :    157.10s CPU    171.93s WALL (       5 calls)
     update_pot   :      2.69s CPU      2.69s WALL (       4 calls)
     forces       :      8.45s CPU      8.97s WALL (       5 calls)

     Called by init_run:
     wfcinit      :      0.07s CPU      0.09s WALL (       1 calls)
     potinit      :      0.68s CPU      0.72s WALL (       1 calls)
     hinit0       :      0.43s CPU      0.50s WALL (       1 calls)

     Called by electrons:
     c_bands      :     23.14s CPU     23.22s WALL (     134 calls)
     sum_band     :     15.68s CPU     22.81s WALL (     134 calls)
     v_of_rho     :      6.12s CPU      6.16s WALL (     135 calls)
     newd         :      9.85s CPU     16.92s WALL (     135 calls)
     PAW_pot      :     78.43s CPU     78.45s WALL (     139 calls)
     mix_rho      :      1.44s CPU      1.45s WALL (     134 calls)

     Called by c_bands:
     init_us_2    :      0.62s CPU      0.64s WALL (     273 calls)
     init_us_2:cp :      0.62s CPU      0.64s WALL (     273 calls)
     cegterg      :     19.16s CPU     19.22s WALL (     134 calls)

     Called by *egterg:
     cdiaghg      :      0.13s CPU      0.13s WALL (     626 calls)
     h_psi        :     16.51s CPU     16.56s WALL (     635 calls)
     s_psi        :      0.89s CPU      0.89s WALL (     635 calls)
     g_psi        :      0.16s CPU      0.16s WALL (     500 calls)

     Called by h_psi:
     h_psi:calbec :      0.96s CPU      0.97s WALL (     635 calls)
     vloc_psi     :     14.59s CPU     14.64s WALL (     635 calls)
     add_vuspsi   :      0.90s CPU      0.90s WALL (     635 calls)

     General routines
     calbec       :      1.29s CPU      1.30s WALL (     793 calls)
     fft          :      2.22s CPU      2.27s WALL (    1544 calls)
     ffts         :      0.20s CPU      0.20s WALL (     134 calls)
     fftw         :     15.75s CPU     15.80s WALL (   11060 calls)
 
     Parallel routines
 
     Environ routines
 
     PWSCF        :   2m46.95s CPU   3m 3.43s WALL

 
   This run was terminated on:  12:43:29  26Apr2022            

=------------------------------------------------------------------------------=
   JOB DONE.
=------------------------------------------------------------------------------=
