
     Program PWSCF v.7.0 starts on 12Apr2022 at  9:48:45 

     This program is part of the open-source Quantum ESPRESSO suite
     for quantum simulation of materials; please cite
         "P. Giannozzi et al., J. Phys.:Condens. Matter 21 395502 (2009);
         "P. Giannozzi et al., J. Phys.:Condens. Matter 29 465901 (2017);
         "P. Giannozzi et al., J. Chem. Phys. 152 154105 (2020);
          URL http://www.quantum-espresso.org", 
     in publications or presentations arising from this work. More details at
     http://www.quantum-espresso.org/quote

     Parallel version (MPI), running on     1 processors

     MPI processes distributed on     1 nodes
     61106 MiB available memory on the printing compute node when the environment starts
 
     Reading input from scf.in

     Current dimensions of program PWSCF are:
     Max number of different atomic species (ntypx) = 10
     Max number of k-points (npk) =  40000
     Max angular momentum in pseudopotentials (lmaxx) =  4
 
     Reading input from environ.in:
     * using electronic solvent mode
     * setting boundary derivatives method to SCCS default
     * setting electrolyte-boundary derivatives method to SCCS default
     
     file Si.pbe-n-kjpaw_psl.1.0.0.UPF: wavefunction(s)  3S 3P renormalized


*******************************************

     Running initial calculation for flatband.

     Using charge of:     0.00000000

*******************************************
     Message from routine setup:
     using ibrav=0 with symmetry is DISCOURAGED, use correct ibrav instead

     Subspace diagonalization in iterative solution of the eigenvalue problem:
     a serial algorithm will be used

 
     G-vector sticks info
     --------------------
     sticks:   dense  smooth     PW     G-vecs:    dense   smooth      PW
     Sum         341     341     89                40125    40125    5049
 
     Using Slab Decomposition
 


     bravais-lattice index     =            0
     lattice parameter (alat)  =       7.3075  a.u.
     unit-cell volume          =    3311.1351 (a.u.)^3
     number of atoms/cell      =            4
     number of atomic types    =            1
     number of electrons       =        16.00
     number of Kohn-Sham states=           12
     kinetic-energy cutoff     =      20.0000  Ry
     charge density cutoff     =      80.0000  Ry
     scf convergence threshold =      1.0E-08
     mixing beta               =       0.7000
     number of iterations used =            8  local-TF  mixing
     Exchange-correlation= SLA  PW   PBX  PBC
                           (   1   4   3   4   0   0   0)

     ================================================================================
 
                                  Environ Setup Summary

     ================================================================================
 
     Please cite

          O. Andreussi, I. Dabo and N. Marzari, J. Chem. Phys. 136, 064102 (2012)
          F. Nattino, M. Truscott, N. Marzari, and O. Andreussi, J. Chem. Phys. 150, 041722 (2019)
          Q. Campbell and I. Dabo, Phys. Rev. B 95, 205308 (2017)
          Q. Campbell, D. Fisher and I. Dabo, Phys. Rev. Mat. 3, 015404 (2019)

     in publications or presentations arising from this work.

     ================================================================================
 
     Parameters
     ==========

     compensation onset threshold      =               0.1000E+00
     static permittivity               =                    78.30

     Solvent Boundary
     ================

     solvent mode                      =               electronic
     derivatives method                =                    chain
     electrolyte derivatives method    =                    chain
     numerical core for derivatives    =                      fft
     switching function adopted        =                     SCCS
     density limit for vacuum region   =               0.5000E-02
     density limit for bulk solvent    =               0.1000E-03

     Electrostatic Setup
     ===================

     electrostatic problem to solve    =              generalized
     numerical solver adopted          =              fixed-point
     type of auxiliary density adopted =                     full
     numerical core for poisson        =                      fft
     type of pbc corrections           =                   ms-gcs
     numerical core for corrections    =                      1da

     ================================================================================
 

     celldm(1)=   7.307524  celldm(2)=   0.000000  celldm(3)=   0.000000
     celldm(4)=   0.000000  celldm(5)=   0.000000  celldm(6)=   0.000000

     crystal axes: (cart. coord. in units of alat)
               a(1) = (   1.000000   0.000000   0.000000 )  
               a(2) = (   0.000000   1.000000   0.000000 )  
               a(3) = (   0.000000   0.000000   8.485281 )  

     reciprocal axes: (cart. coord. in units 2 pi/alat)
               b(1) = (  1.000000  0.000000  0.000000 )  
               b(2) = (  0.000000  1.000000  0.000000 )  
               b(3) = (  0.000000  0.000000  0.117851 )  


     PseudoPot. # 1 for Si read from file:
     /ascldap/users/qcampbe/Pseudos/pslibrary.1.0.0/pbe/PSEUDOPOTENTIALS/Si.pbe-n-kjpaw_psl.1.0.0.UPF
     MD5 check sum: f6fdc0b5ea41c4765647ac85391047bf
     Pseudo is Projector augmented-wave + core cor, Zval =  4.0
     Generated using &quot;atomic&quot; code by A. Dal Corso  v.6.4.1
     Shape of augmentation charge: PSQ
     Using radial grid of 1141 points,  6 beta functions with: 
                l(1) =   0
                l(2) =   0
                l(3) =   1
                l(4) =   1
                l(5) =   2
                l(6) =   2
     Q(r) pseudized with 0 coefficients 


     atomic species   valence    mass     pseudopotential
        Si             4.00    28.08550     Si( 1.00)

      8 Sym. Ops., with inversion, found ( 4 have fractional translation)


                                    s                        frac. trans.

      isym =  1     identity                                     

 cryst.   s( 1) = (     1          0          0      )
                  (     0          1          0      )
                  (     0          0          1      )

 cart.    s( 1) = (  1.0000000  0.0000000  0.0000000 )
                  (  0.0000000  1.0000000  0.0000000 )
                  (  0.0000000  0.0000000  1.0000000 )


      isym =  2     180 deg rotation - cart. axis [0,0,1]        

 cryst.   s( 2) = (    -1          0          0      )
                  (     0         -1          0      )
                  (     0          0          1      )

 cart.    s( 2) = ( -1.0000000  0.0000000  0.0000000 )
                  (  0.0000000 -1.0000000  0.0000000 )
                  (  0.0000000  0.0000000  1.0000000 )


      isym =  3     180 deg rotation - cart. axis [0,1,0]        

 cryst.   s( 3) = (    -1          0          0      )    f =(  0.5000000 )
                  (     0          1          0      )       (  0.0000000 )
                  (     0          0         -1      )       (  0.0000000 )

 cart.    s( 3) = ( -1.0000000  0.0000000  0.0000000 )    f =(  0.5000000 )
                  (  0.0000000  1.0000000  0.0000000 )       (  0.0000000 )
                  (  0.0000000  0.0000000 -1.0000000 )       (  0.0000000 )


      isym =  4     180 deg rotation - cart. axis [1,0,0]        

 cryst.   s( 4) = (     1          0          0      )    f =(  0.5000000 )
                  (     0         -1          0      )       (  0.0000000 )
                  (     0          0         -1      )       (  0.0000000 )

 cart.    s( 4) = (  1.0000000  0.0000000  0.0000000 )    f =(  0.5000000 )
                  (  0.0000000 -1.0000000  0.0000000 )       (  0.0000000 )
                  (  0.0000000  0.0000000 -1.0000000 )       (  0.0000000 )


      isym =  5     inversion                                    

 cryst.   s( 5) = (    -1          0          0      )    f =(  0.5000000 )
                  (     0         -1          0      )       (  0.0000000 )
                  (     0          0         -1      )       (  0.0000000 )

 cart.    s( 5) = ( -1.0000000  0.0000000  0.0000000 )    f =(  0.5000000 )
                  (  0.0000000 -1.0000000  0.0000000 )       (  0.0000000 )
                  (  0.0000000  0.0000000 -1.0000000 )       (  0.0000000 )


      isym =  6     inv. 180 deg rotation - cart. axis [0,0,1]   

 cryst.   s( 6) = (     1          0          0      )    f =(  0.5000000 )
                  (     0          1          0      )       (  0.0000000 )
                  (     0          0         -1      )       (  0.0000000 )

 cart.    s( 6) = (  1.0000000  0.0000000  0.0000000 )    f =(  0.5000000 )
                  (  0.0000000  1.0000000  0.0000000 )       (  0.0000000 )
                  (  0.0000000  0.0000000 -1.0000000 )       (  0.0000000 )


      isym =  7     inv. 180 deg rotation - cart. axis [0,1,0]   

 cryst.   s( 7) = (     1          0          0      )
                  (     0         -1          0      )
                  (     0          0          1      )

 cart.    s( 7) = (  1.0000000  0.0000000  0.0000000 )
                  (  0.0000000 -1.0000000  0.0000000 )
                  (  0.0000000  0.0000000  1.0000000 )


      isym =  8     inv. 180 deg rotation - cart. axis [1,0,0]   

 cryst.   s( 8) = (    -1          0          0      )
                  (     0          1          0      )
                  (     0          0          1      )

 cart.    s( 8) = ( -1.0000000  0.0000000  0.0000000 )
                  (  0.0000000  1.0000000  0.0000000 )
                  (  0.0000000  0.0000000  1.0000000 )


   Cartesian axes

     site n.     atom                  positions (alat units)
         1           Si  tau(   1) = (   1.0000000   0.5000000   4.7729703  )
         2           Si  tau(   2) = (   0.5000000   0.5000000   3.7123103  )
         3           Si  tau(   3) = (   0.5000000   1.0000000   4.0658665  )
         4           Si  tau(   4) = (   1.0000000   0.0000000   4.4194142  )

   Crystallographic axes

     site n.     atom                  positions (cryst. coord.)
         1           Si  tau(   1) = (  1.0000000  0.5000000  0.5625000  )
         2           Si  tau(   2) = (  0.5000000  0.5000000  0.4375000  )
         3           Si  tau(   3) = (  0.5000000  1.0000000  0.4791670  )
         4           Si  tau(   4) = (  1.0000000  0.0000000  0.5208330  )

     number of k points=     1  Marzari-Vanderbilt smearing, width (Ry)=  0.0001
                       cart. coord. in units 2pi/alat
        k(    1) = (   0.0000000   0.0000000   0.0000000), wk =   2.0000000

                       cryst. coord.
        k(    1) = (   0.0000000   0.0000000   0.0000000), wk =   2.0000000

     Dense  grid:    40125 G-vectors     FFT dimensions: (  24,  24, 180)

     Dynamical RAM for                 wfc:       0.92 MB

     Dynamical RAM for     wfc (w. buffer):       0.92 MB

     Dynamical RAM for           str. fact:       0.61 MB

     Dynamical RAM for           local pot:       0.00 MB

     Dynamical RAM for          nlocal pot:       5.49 MB

     Dynamical RAM for                qrad:       0.72 MB

     Dynamical RAM for          rho,v,vnew:       4.21 MB

     Dynamical RAM for               rhoin:       1.40 MB

     Dynamical RAM for            rho*nmix:       9.80 MB

     Dynamical RAM for           G-vectors:       2.60 MB

     Dynamical RAM for          h,s,v(r/c):       0.03 MB

     Dynamical RAM for          <psi|beta>:       0.01 MB

     Dynamical RAM for                 psi:       1.83 MB

     Dynamical RAM for                hpsi:       1.83 MB

     Dynamical RAM for                spsi:       1.83 MB

     Dynamical RAM for      wfcinit/wfcrot:       2.45 MB

     Dynamical RAM for           addusdens:     116.33 MB

     Dynamical RAM for          addusforce:     120.32 MB

     Estimated static dynamical RAM per process >      21.14 MB

     Estimated max dynamical RAM per process >     151.26 MB

Environ Warning (1005): wrong integral of erfc function


     Check: negative core charge=   -0.000003

     Initial potential from superposition of free atoms

     starting charge      15.9978, renormalised to      16.0000

     negative rho (up, down):  3.080E-03 0.000E+00
     Starting wfcs are   16 randomized atomic wfcs
     Checking if some PAW data can be deallocated... 

     total cpu time spent up to now is        2.1 secs

     Self-consistent Calculation

     iteration #  1     ecut=    20.00 Ry     beta= 0.70
     Davidson diagonalization with overlap

---- Real-time Memory Report at c_bands before calling an iterative solver
           222 MiB given to the printing process from OS
             0 MiB allocation reported by mallinfo(arena+hblkhd)
         60974 MiB available memory on the node where the printing process lives
------------------
     ethr =  1.00E-02,  avg # of iterations =  3.0

     negative rho (up, down):  6.165E-03 0.000E+00

     total cpu time spent up to now is        4.1 secs

     total energy              =    -186.07660789 Ry
     estimated scf accuracy    <       0.26721769 Ry
     electrostatic embedding   =       0.00000000 Ry
     electrolyte free energy   =       0.00001123 Ry
     correction to one-el term =       0.00000000 Ry

     iteration #  2     ecut=    20.00 Ry     beta= 0.70
     Davidson diagonalization with overlap

---- Real-time Memory Report at c_bands before calling an iterative solver
           243 MiB given to the printing process from OS
             0 MiB allocation reported by mallinfo(arena+hblkhd)
         60953 MiB available memory on the node where the printing process lives
------------------
     ethr =  1.67E-03,  avg # of iterations =  1.0

     negative rho (up, down):  1.164E-02 0.000E+00

     add environment contribution to local potential
     Polarization accuracy = 6.2E-12, # of iterations =  24

     total cpu time spent up to now is        6.4 secs

     total energy              =    -186.06261784 Ry
     estimated scf accuracy    <       0.07623057 Ry
     electrostatic embedding   =       0.00000000 Ry
     electrolyte free energy   =       0.00001123 Ry
     correction to one-el term =       0.00000000 Ry

     iteration #  3     ecut=    20.00 Ry     beta= 0.70
     Davidson diagonalization with overlap

---- Real-time Memory Report at c_bands before calling an iterative solver
           244 MiB given to the printing process from OS
             0 MiB allocation reported by mallinfo(arena+hblkhd)
         60952 MiB available memory on the node where the printing process lives
------------------
     ethr =  4.76E-04,  avg # of iterations =  2.0

     negative rho (up, down):  1.193E-02 0.000E+00

     add environment contribution to local potential
     Polarization accuracy = 5.0E-12, # of iterations =  18

     total cpu time spent up to now is        8.3 secs

     total energy              =    -186.07879556 Ry
     estimated scf accuracy    <       0.00487142 Ry
     electrostatic embedding   =      -0.00206436 Ry
     electrolyte free energy   =      -0.00001095 Ry
     correction to one-el term =       2.23211270 Ry

     iteration #  4     ecut=    20.00 Ry     beta= 0.70
     Davidson diagonalization with overlap

---- Real-time Memory Report at c_bands before calling an iterative solver
           246 MiB given to the printing process from OS
             0 MiB allocation reported by mallinfo(arena+hblkhd)
         60951 MiB available memory on the node where the printing process lives
------------------
     ethr =  3.04E-05,  avg # of iterations =  9.0

     negative rho (up, down):  1.205E-02 0.000E+00

     add environment contribution to local potential
     Polarization accuracy = 9.1E-12, # of iterations =  13

     total cpu time spent up to now is       10.3 secs

     total energy              =    -186.08082322 Ry
     estimated scf accuracy    <       0.00613603 Ry
     electrostatic embedding   =      -0.00239428 Ry
     electrolyte free energy   =      -0.00001254 Ry
     correction to one-el term =       2.21636317 Ry

     iteration #  5     ecut=    20.00 Ry     beta= 0.70
     Davidson diagonalization with overlap

---- Real-time Memory Report at c_bands before calling an iterative solver
           247 MiB given to the printing process from OS
             0 MiB allocation reported by mallinfo(arena+hblkhd)
         60949 MiB available memory on the node where the printing process lives
------------------
     ethr =  3.04E-05,  avg # of iterations =  1.0

     negative rho (up, down):  1.413E-02 0.000E+00

     add environment contribution to local potential
     Polarization accuracy = 9.2E-12, # of iterations =  19

     total cpu time spent up to now is       12.3 secs

     total energy              =    -186.07923050 Ry
     estimated scf accuracy    <       0.00546628 Ry
     electrostatic embedding   =      -0.00243283 Ry
     electrolyte free energy   =      -0.00001260 Ry
     correction to one-el term =       2.21931059 Ry

     iteration #  6     ecut=    20.00 Ry     beta= 0.70
     Davidson diagonalization with overlap

---- Real-time Memory Report at c_bands before calling an iterative solver
           248 MiB given to the printing process from OS
             0 MiB allocation reported by mallinfo(arena+hblkhd)
         60948 MiB available memory on the node where the printing process lives
------------------
     ethr =  3.04E-05,  avg # of iterations =  3.0

     negative rho (up, down):  1.411E-02 0.000E+00

     add environment contribution to local potential
     Polarization accuracy = 9.3E-12, # of iterations =  16

     total cpu time spent up to now is       14.4 secs

     total energy              =    -186.08149729 Ry
     estimated scf accuracy    <       0.00301257 Ry
     electrostatic embedding   =      -0.00350386 Ry
     electrolyte free energy   =      -0.00001542 Ry
     correction to one-el term =       2.23157414 Ry

     iteration #  7     ecut=    20.00 Ry     beta= 0.70
     Davidson diagonalization with overlap

---- Real-time Memory Report at c_bands before calling an iterative solver
           249 MiB given to the printing process from OS
             0 MiB allocation reported by mallinfo(arena+hblkhd)
         60947 MiB available memory on the node where the printing process lives
------------------
     ethr =  1.88E-05,  avg # of iterations =  1.0

     negative rho (up, down):  1.258E-02 0.000E+00

     add environment contribution to local potential
     Polarization accuracy = 7.0E-12, # of iterations =  19

     total cpu time spent up to now is       16.5 secs

     total energy              =    -186.08035670 Ry
     estimated scf accuracy    <       0.00209592 Ry
     electrostatic embedding   =      -0.00383495 Ry
     electrolyte free energy   =      -0.00001670 Ry
     correction to one-el term =       2.21998162 Ry

     iteration #  8     ecut=    20.00 Ry     beta= 0.70
     Davidson diagonalization with overlap

---- Real-time Memory Report at c_bands before calling an iterative solver
           250 MiB given to the printing process from OS
             0 MiB allocation reported by mallinfo(arena+hblkhd)
         60945 MiB available memory on the node where the printing process lives
------------------
     ethr =  1.31E-05,  avg # of iterations =  3.0

     negative rho (up, down):  1.242E-02 0.000E+00

     add environment contribution to local potential
     Polarization accuracy = 4.4E-12, # of iterations =  18

     total cpu time spent up to now is       18.4 secs

     total energy              =    -186.08171620 Ry
     estimated scf accuracy    <       0.00344352 Ry
     electrostatic embedding   =      -0.00490367 Ry
     electrolyte free energy   =      -0.00002062 Ry
     correction to one-el term =       2.12192925 Ry

     iteration #  9     ecut=    20.00 Ry     beta= 0.70
     Davidson diagonalization with overlap

---- Real-time Memory Report at c_bands before calling an iterative solver
           252 MiB given to the printing process from OS
             0 MiB allocation reported by mallinfo(arena+hblkhd)
         60945 MiB available memory on the node where the printing process lives
------------------
     ethr =  1.31E-05,  avg # of iterations =  2.0

     negative rho (up, down):  1.113E-02 0.000E+00

     add environment contribution to local potential
     Polarization accuracy = 7.3E-12, # of iterations =  20

     total cpu time spent up to now is       20.5 secs

     total energy              =    -186.08077078 Ry
     estimated scf accuracy    <       0.00274138 Ry
     electrostatic embedding   =      -0.00588698 Ry
     electrolyte free energy   =      -0.00002370 Ry
     correction to one-el term =       2.06152663 Ry

     iteration # 10     ecut=    20.00 Ry     beta= 0.70
     Davidson diagonalization with overlap

---- Real-time Memory Report at c_bands before calling an iterative solver
           253 MiB given to the printing process from OS
             0 MiB allocation reported by mallinfo(arena+hblkhd)
         60944 MiB available memory on the node where the printing process lives
------------------
     ethr =  1.31E-05,  avg # of iterations =  2.0

     negative rho (up, down):  9.714E-03 0.000E+00

     add environment contribution to local potential
     Polarization accuracy = 4.8E-12, # of iterations =  21

     total cpu time spent up to now is       22.6 secs

     total energy              =    -186.08139117 Ry
     estimated scf accuracy    <       0.00032098 Ry
     electrostatic embedding   =      -0.00883315 Ry
     electrolyte free energy   =      -0.00002974 Ry
     correction to one-el term =       1.82042986 Ry

     iteration # 11     ecut=    20.00 Ry     beta= 0.70
     Davidson diagonalization with overlap

---- Real-time Memory Report at c_bands before calling an iterative solver
           253 MiB given to the printing process from OS
             0 MiB allocation reported by mallinfo(arena+hblkhd)
         60944 MiB available memory on the node where the printing process lives
------------------
     ethr =  2.01E-06,  avg # of iterations =  7.0

     negative rho (up, down):  8.289E-03 0.000E+00

     add environment contribution to local potential
     Polarization accuracy = 7.7E-12, # of iterations =  21

     total cpu time spent up to now is       24.7 secs

     total energy              =    -186.08124598 Ry
     estimated scf accuracy    <       0.00151313 Ry
     electrostatic embedding   =      -0.00994848 Ry
     electrolyte free energy   =      -0.00002911 Ry
     correction to one-el term =       1.67875154 Ry

     iteration # 12     ecut=    20.00 Ry     beta= 0.70
     Davidson diagonalization with overlap

---- Real-time Memory Report at c_bands before calling an iterative solver
           253 MiB given to the printing process from OS
             0 MiB allocation reported by mallinfo(arena+hblkhd)
         60944 MiB available memory on the node where the printing process lives
------------------
     ethr =  2.01E-06,  avg # of iterations =  3.0

     negative rho (up, down):  5.085E-03 0.000E+00

     add environment contribution to local potential
     Polarization accuracy = 8.5E-12, # of iterations =  30

     total cpu time spent up to now is       27.0 secs

     total energy              =    -186.08168222 Ry
     estimated scf accuracy    <       0.00025773 Ry
     electrostatic embedding   =      -0.01157403 Ry
     electrolyte free energy   =      -0.00003238 Ry
     correction to one-el term =       1.50727233 Ry

     iteration # 13     ecut=    20.00 Ry     beta= 0.70
     Davidson diagonalization with overlap

---- Real-time Memory Report at c_bands before calling an iterative solver
           253 MiB given to the printing process from OS
             0 MiB allocation reported by mallinfo(arena+hblkhd)
         60944 MiB available memory on the node where the printing process lives
------------------
     ethr =  1.61E-06,  avg # of iterations =  7.0

     negative rho (up, down):  4.898E-03 0.000E+00

     add environment contribution to local potential
     Polarization accuracy = 8.6E-12, # of iterations =  36

     total cpu time spent up to now is       29.4 secs

     total energy              =    -186.08080945 Ry
     estimated scf accuracy    <       0.00394954 Ry
     electrostatic embedding   =      -0.01647153 Ry
     electrolyte free energy   =      -0.00004199 Ry
     correction to one-el term =       1.04084000 Ry

     iteration # 14     ecut=    20.00 Ry     beta= 0.70
     Davidson diagonalization with overlap

---- Real-time Memory Report at c_bands before calling an iterative solver
           253 MiB given to the printing process from OS
             0 MiB allocation reported by mallinfo(arena+hblkhd)
         60944 MiB available memory on the node where the printing process lives
------------------
     ethr =  1.61E-06,  avg # of iterations =  4.0

     negative rho (up, down):  5.588E-03 0.000E+00

     add environment contribution to local potential
     Polarization accuracy = 6.6E-12, # of iterations =  34

     total cpu time spent up to now is       31.6 secs

     total energy              =    -186.08145952 Ry
     estimated scf accuracy    <       0.00193305 Ry
     electrostatic embedding   =      -0.01975212 Ry
     electrolyte free energy   =      -0.00005990 Ry
     correction to one-el term =       0.83223027 Ry

     iteration # 15     ecut=    20.00 Ry     beta= 0.70
     Davidson diagonalization with overlap

---- Real-time Memory Report at c_bands before calling an iterative solver
           253 MiB given to the printing process from OS
             0 MiB allocation reported by mallinfo(arena+hblkhd)
         60944 MiB available memory on the node where the printing process lives
------------------
     ethr =  1.61E-06,  avg # of iterations =  2.0

     negative rho (up, down):  4.210E-03 0.000E+00

     add environment contribution to local potential
     Polarization accuracy = 5.5E-12, # of iterations =  33

     total cpu time spent up to now is       33.9 secs

     total energy              =    -186.08095933 Ry
     estimated scf accuracy    <       0.00265938 Ry
     electrostatic embedding   =      -0.01818088 Ry
     electrolyte free energy   =      -0.00005680 Ry
     correction to one-el term =       0.91680725 Ry

     iteration # 16     ecut=    20.00 Ry     beta= 0.70
     Davidson diagonalization with overlap

---- Real-time Memory Report at c_bands before calling an iterative solver
           253 MiB given to the printing process from OS
             0 MiB allocation reported by mallinfo(arena+hblkhd)
         60944 MiB available memory on the node where the printing process lives
------------------
     ethr =  1.61E-06,  avg # of iterations =  5.0

     negative rho (up, down):  3.852E-03 0.000E+00

     add environment contribution to local potential
     Polarization accuracy = 6.7E-12, # of iterations =  27

     total cpu time spent up to now is       36.0 secs

     total energy              =    -186.08071551 Ry
     estimated scf accuracy    <       0.00010295 Ry
     electrostatic embedding   =      -0.01992447 Ry
     electrolyte free energy   =      -0.00005267 Ry
     correction to one-el term =       0.83178104 Ry

     iteration # 17     ecut=    20.00 Ry     beta= 0.70
     Davidson diagonalization with overlap

---- Real-time Memory Report at c_bands before calling an iterative solver
           253 MiB given to the printing process from OS
             0 MiB allocation reported by mallinfo(arena+hblkhd)
         60944 MiB available memory on the node where the printing process lives
------------------
     ethr =  6.43E-07,  avg # of iterations =  4.0

     negative rho (up, down):  3.656E-03 0.000E+00

     add environment contribution to local potential
     Polarization accuracy = 8.0E-12, # of iterations =  25

     total cpu time spent up to now is       38.4 secs

     total energy              =    -186.08078059 Ry
     estimated scf accuracy    <       0.00007228 Ry
     electrostatic embedding   =      -0.01874077 Ry
     electrolyte free energy   =      -0.00004754 Ry
     correction to one-el term =       0.89668104 Ry

     iteration # 18     ecut=    20.00 Ry     beta= 0.70
     Davidson diagonalization with overlap

---- Real-time Memory Report at c_bands before calling an iterative solver
           253 MiB given to the printing process from OS
             0 MiB allocation reported by mallinfo(arena+hblkhd)
         60944 MiB available memory on the node where the printing process lives
------------------
     ethr =  4.52E-07,  avg # of iterations =  6.0

     negative rho (up, down):  3.498E-03 0.000E+00

     add environment contribution to local potential
     Polarization accuracy = 8.7E-12, # of iterations =  23

     total cpu time spent up to now is       40.6 secs

     total energy              =    -186.08117172 Ry
     estimated scf accuracy    <       0.00013234 Ry
     electrostatic embedding   =      -0.01658091 Ry
     electrolyte free energy   =      -0.00003589 Ry
     correction to one-el term =       1.04477300 Ry

     iteration # 19     ecut=    20.00 Ry     beta= 0.70
     Davidson diagonalization with overlap

---- Real-time Memory Report at c_bands before calling an iterative solver
           253 MiB given to the printing process from OS
             0 MiB allocation reported by mallinfo(arena+hblkhd)
         60944 MiB available memory on the node where the printing process lives
------------------
     ethr =  4.52E-07,  avg # of iterations =  3.0

     negative rho (up, down):  3.317E-03 0.000E+00

     add environment contribution to local potential
     Polarization accuracy = 6.0E-12, # of iterations =  19

     total cpu time spent up to now is       42.7 secs

     total energy              =    -186.08133010 Ry
     estimated scf accuracy    <       0.00001372 Ry
     electrostatic embedding   =      -0.01434866 Ry
     electrolyte free energy   =      -0.00003237 Ry
     correction to one-el term =       1.16091379 Ry

     iteration # 20     ecut=    20.00 Ry     beta= 0.70
     Davidson diagonalization with overlap

---- Real-time Memory Report at c_bands before calling an iterative solver
           253 MiB given to the printing process from OS
             0 MiB allocation reported by mallinfo(arena+hblkhd)
         60944 MiB available memory on the node where the printing process lives
------------------
     ethr =  8.58E-08,  avg # of iterations =  3.0

     negative rho (up, down):  3.319E-03 0.000E+00

     add environment contribution to local potential
     Polarization accuracy = 9.7E-12, # of iterations =  18

     total cpu time spent up to now is       44.8 secs

     total energy              =    -186.08127619 Ry
     estimated scf accuracy    <       0.00000101 Ry
     electrostatic embedding   =      -0.01514019 Ry
     electrolyte free energy   =      -0.00003332 Ry
     correction to one-el term =       1.10017724 Ry

     iteration # 21     ecut=    20.00 Ry     beta= 0.70
     Davidson diagonalization with overlap

---- Real-time Memory Report at c_bands before calling an iterative solver
           253 MiB given to the printing process from OS
             0 MiB allocation reported by mallinfo(arena+hblkhd)
         60944 MiB available memory on the node where the printing process lives
------------------
     ethr =  6.32E-09,  avg # of iterations =  5.0

     negative rho (up, down):  3.319E-03 0.000E+00

     add environment contribution to local potential
     Polarization accuracy = 8.6E-12, # of iterations =  16

     total cpu time spent up to now is       47.1 secs

     total energy              =    -186.08128732 Ry
     estimated scf accuracy    <       0.00000652 Ry
     electrostatic embedding   =      -0.01495684 Ry
     electrolyte free energy   =      -0.00003287 Ry
     correction to one-el term =       1.11013967 Ry

     iteration # 22     ecut=    20.00 Ry     beta= 0.70
     Davidson diagonalization with overlap

---- Real-time Memory Report at c_bands before calling an iterative solver
           253 MiB given to the printing process from OS
             0 MiB allocation reported by mallinfo(arena+hblkhd)
         60944 MiB available memory on the node where the printing process lives
------------------
     ethr =  6.32E-09,  avg # of iterations =  4.0

     negative rho (up, down):  3.316E-03 0.000E+00

     add environment contribution to local potential
     Polarization accuracy = 9.6E-12, # of iterations =  14

     total cpu time spent up to now is       49.0 secs

     total energy              =    -186.08128424 Ry
     estimated scf accuracy    <       0.00000007 Ry
     electrostatic embedding   =      -0.01507573 Ry
     electrolyte free energy   =      -0.00003303 Ry
     correction to one-el term =       1.10433607 Ry

     iteration # 23     ecut=    20.00 Ry     beta= 0.70
     Davidson diagonalization with overlap

---- Real-time Memory Report at c_bands before calling an iterative solver
           253 MiB given to the printing process from OS
             0 MiB allocation reported by mallinfo(arena+hblkhd)
         60944 MiB available memory on the node where the printing process lives
------------------
     ethr =  4.27E-10,  avg # of iterations =  4.0

     negative rho (up, down):  3.306E-03 0.000E+00

     add environment contribution to local potential
     Polarization accuracy = 7.5E-12, # of iterations =  17

     total cpu time spent up to now is       51.1 secs

     total energy              =    -186.08127883 Ry
     estimated scf accuracy    <       0.00000008 Ry
     electrostatic embedding   =      -0.01509948 Ry
     electrolyte free energy   =      -0.00003319 Ry
     correction to one-el term =       1.10228233 Ry

     iteration # 24     ecut=    20.00 Ry     beta= 0.70
     Davidson diagonalization with overlap

---- Real-time Memory Report at c_bands before calling an iterative solver
           253 MiB given to the printing process from OS
             0 MiB allocation reported by mallinfo(arena+hblkhd)
         60944 MiB available memory on the node where the printing process lives
------------------
     ethr =  4.27E-10,  avg # of iterations =  6.0

     negative rho (up, down):  3.302E-03 0.000E+00

     add environment contribution to local potential
     Polarization accuracy = 7.6E-12, # of iterations =  14

     total cpu time spent up to now is       53.1 secs

     total energy              =    -186.08126042 Ry
     estimated scf accuracy    <       0.00000004 Ry
     electrostatic embedding   =      -0.01527904 Ry
     electrolyte free energy   =      -0.00003366 Ry
     correction to one-el term =       1.09087952 Ry

     iteration # 25     ecut=    20.00 Ry     beta= 0.70
     Davidson diagonalization with overlap

---- Real-time Memory Report at c_bands before calling an iterative solver
           253 MiB given to the printing process from OS
             0 MiB allocation reported by mallinfo(arena+hblkhd)
         60944 MiB available memory on the node where the printing process lives
------------------
     ethr =  2.23E-10,  avg # of iterations =  4.0

     negative rho (up, down):  3.300E-03 0.000E+00

     add environment contribution to local potential
     Polarization accuracy = 5.5E-12, # of iterations =  14

     total cpu time spent up to now is       55.2 secs

     total energy              =    -186.08125558 Ry
     estimated scf accuracy    <       0.00000005 Ry
     electrostatic embedding   =      -0.01532340 Ry
     electrolyte free energy   =      -0.00003379 Ry
     correction to one-el term =       1.08797901 Ry

     iteration # 26     ecut=    20.00 Ry     beta= 0.70
     Davidson diagonalization with overlap

---- Real-time Memory Report at c_bands before calling an iterative solver
           253 MiB given to the printing process from OS
             0 MiB allocation reported by mallinfo(arena+hblkhd)
         60944 MiB available memory on the node where the printing process lives
------------------
     ethr =  2.23E-10,  avg # of iterations =  3.0

     negative rho (up, down):  3.300E-03 0.000E+00

     add environment contribution to local potential
     Polarization accuracy = 4.4E-12, # of iterations =  13

     total cpu time spent up to now is       57.0 secs

     total energy              =    -186.08125195 Ry
     estimated scf accuracy    <       0.00000001 Ry
     electrostatic embedding   =      -0.01535941 Ry
     electrolyte free energy   =      -0.00003387 Ry
     correction to one-el term =       1.08575364 Ry

     iteration # 27     ecut=    20.00 Ry     beta= 0.70
     Davidson diagonalization with overlap

---- Real-time Memory Report at c_bands before calling an iterative solver
           253 MiB given to the printing process from OS
             0 MiB allocation reported by mallinfo(arena+hblkhd)
         60944 MiB available memory on the node where the printing process lives
------------------
     ethr =  6.85E-11,  avg # of iterations =  4.0

     negative rho (up, down):  3.302E-03 0.000E+00

     the potential shift due to the Gaussian-smeared nuclei is    -0.1033 ev

     total cpu time spent up to now is       58.6 secs

     End of self-consistent calculation

          k = 0.0000 0.0000 0.0000 (  5049 PWs)   bands (ev):

   -16.7268 -14.4877 -11.2445  -7.8302  -7.7909  -7.3468  -6.3961  -5.2774
    -4.6732  -4.1132  -3.9567  -2.8925

     occupation numbers 
     1.0000   1.0000   1.0000   1.0000   1.0000   1.0000   1.0000   1.0000
     0.0000   0.0000   0.0000   0.0000

     the Fermi energy is    -5.0448 ev

!    total energy              =    -186.08124995 Ry

     total all-electron energy =     -2319.464710 Ry
     estimated scf accuracy    <          7.8E-10 Ry
     smearing contrib. (-TS)   =       0.00000000 Ry
     internal energy E=F+TS    =    -186.08124995 Ry

     The total energy is F=E-TS. E is the sum of the following terms:
     one-electron contribution =    -416.37166752 Ry
     hartree contribution      =     209.53682602 Ry
     xc contribution           =     -24.25462348 Ry
     ewald contribution        =     186.30364135 Ry
     one-center paw contrib.   =    -142.36469415 Ry
      -> PAW hartree energy AE =      11.53131282 Ry
      -> PAW hartree energy PS =     -11.48546191 Ry
      -> PAW xc energy AE      =    -163.37915318 Ry
      -> PAW xc energy PS      =      20.96860812 Ry
      -> total E_H with PAW    =     209.58267693 Ry
      -> total E_XC with PAW   =    -166.66516855 Ry
     electrostatic embedding   =      -0.01537813 Ry
     electrolyte free energy   =      -0.00003392 Ry
     correction to one-el term =       1.08467988 Ry

     WARNING: you are using the parabolic pbc correction;
              the potential shift above must be added to 
              band and Fermi energies.

     convergence has been achieved in  27 iterations

     negative rho (up, down):  3.302E-03 0.000E+00
     The global environment contribution to forces
     atom    1 type  1   force =     0.00000000    0.00000000   -0.04668536
     atom    2 type  1   force =    -0.00000000   -0.00000000    0.04668623
     atom    3 type  1   force =    -0.00000000   -0.00000000    0.00628745
     atom    4 type  1   force =    -0.00000000   -0.00000000   -0.00628650
 


***************************************************

     Flatband potential calculated as    -5.04478088

     Now using initial charge of:      0.00070000

***************************************************
     charge density from previous step

     Check: negative core charge=   -0.000003

     negative rho (up, down):  3.302E-03 0.000E+00
     extrapolated charge   16.00000, renormalised to   15.99930

Environ Warning (1005): wrong integral of erfc function


     add environment contribution to local potential
     Polarization accuracy = 9.6E-12, # of iterations =  15

     Forces acting on atoms (cartesian axes, Ry/au):

     atom    1 type  1   force =     0.00000000    0.00000000    0.01072692
     atom    2 type  1   force =     0.00000000    0.00000000   -0.01072692
     atom    3 type  1   force =     0.00000000    0.00000000    0.00123495
     atom    4 type  1   force =     0.00000000    0.00000000   -0.00123495
     The non-local contrib.  to forces
     atom    1 type  1   force =     0.00000000    0.00000000   -0.04161294
     atom    2 type  1   force =     0.00000000    0.00000000    0.04161294
     atom    3 type  1   force =     0.00000000    0.00000000   -0.05648140
     atom    4 type  1   force =     0.00000000    0.00000000    0.05648140
     The ionic contribution  to forces
     atom    1 type  1   force =    -0.00000000   -0.00000000    8.79312658
     atom    2 type  1   force =    -0.00000000   -0.00000000   -8.79312658
     atom    3 type  1   force =     0.00000000    0.00000000   -2.98930598
     atom    4 type  1   force =    -0.00000000    0.00000000    2.98930598
     The local contribution  to forces
     atom    1 type  1   force =     0.00000000   -0.00000000   -8.69643206
     atom    2 type  1   force =     0.00000000   -0.00000000    8.69643206
     atom    3 type  1   force =    -0.00000000    0.00000000    3.03505362
     atom    4 type  1   force =     0.00000000    0.00000000   -3.03505362
     The core correction contribution to forces
     atom    1 type  1   force =     0.00000000    0.00000000    0.00234292
     atom    2 type  1   force =     0.00000000    0.00000000   -0.00234292
     atom    3 type  1   force =    -0.00000000   -0.00000000    0.00568855
     atom    4 type  1   force =     0.00000000   -0.00000000   -0.00568855
     The Hubbard contrib.    to forces
     atom    1 type  1   force =     0.00000000    0.00000000    0.00000000
     atom    2 type  1   force =     0.00000000    0.00000000    0.00000000
     atom    3 type  1   force =     0.00000000    0.00000000    0.00000000
     atom    4 type  1   force =     0.00000000    0.00000000    0.00000000
     The SCF correction term to forces
     atom    1 type  1   force =     0.00000000   -0.00000000   -0.00001201
     atom    2 type  1   force =     0.00000000   -0.00000000    0.00001159
     atom    3 type  1   force =    -0.00000000   -0.00000000   -0.00000711
     atom    4 type  1   force =     0.00000000   -0.00000000    0.00000654

     Total force =     0.015270     Total SCF correction =     0.000019

     total cpu time spent up to now is       60.8 secs

     Self-consistent Calculation

     iteration #  1     ecut=    20.00 Ry     beta= 0.70
     Davidson diagonalization with overlap

---- Real-time Memory Report at c_bands before calling an iterative solver
           254 MiB given to the printing process from OS
             0 MiB allocation reported by mallinfo(arena+hblkhd)
         60951 MiB available memory on the node where the printing process lives
------------------
     ethr =  1.00E-06,  avg # of iterations =  1.0

     Threshold (ethr) on eigenvalues was too large:
     Diagonalizing with lowered threshold

     Davidson diagonalization with overlap

---- Real-time Memory Report at c_bands before calling an iterative solver
           254 MiB given to the printing process from OS
             0 MiB allocation reported by mallinfo(arena+hblkhd)
         60951 MiB available memory on the node where the printing process lives
------------------
     ethr =  2.31E-09,  avg # of iterations =  2.0

     negative rho (up, down):  3.319E-03 0.000E+00

     add environment contribution to local potential
     Polarization accuracy = 5.8E-12, # of iterations =  13

     total cpu time spent up to now is       62.8 secs

     total energy              =    -186.08124815 Ry
     estimated scf accuracy    <       0.00000036 Ry
     electrostatic embedding   =      -0.01533196 Ry
     electrolyte free energy   =      -0.00003687 Ry
     correction to one-el term =       1.07566591 Ry

     iteration #  2     ecut=    20.00 Ry     beta= 0.70
     Davidson diagonalization with overlap

---- Real-time Memory Report at c_bands before calling an iterative solver
           254 MiB given to the printing process from OS
             0 MiB allocation reported by mallinfo(arena+hblkhd)
         60946 MiB available memory on the node where the printing process lives
------------------
     ethr =  2.28E-09,  avg # of iterations =  3.0

     negative rho (up, down):  3.318E-03 0.000E+00

     add environment contribution to local potential
     Polarization accuracy = 7.5E-12, # of iterations =   7

     total cpu time spent up to now is       64.5 secs

     total energy              =    -186.08124487 Ry
     estimated scf accuracy    <       0.00000162 Ry
     electrostatic embedding   =      -0.01535065 Ry
     electrolyte free energy   =      -0.00003702 Ry
     correction to one-el term =       1.07481380 Ry

     iteration #  3     ecut=    20.00 Ry     beta= 0.70
     Davidson diagonalization with overlap

---- Real-time Memory Report at c_bands before calling an iterative solver
           254 MiB given to the printing process from OS
             0 MiB allocation reported by mallinfo(arena+hblkhd)
         60945 MiB available memory on the node where the printing process lives
------------------
     ethr =  2.28E-09,  avg # of iterations =  1.0

     negative rho (up, down):  3.315E-03 0.000E+00

     add environment contribution to local potential
     Polarization accuracy = 7.4E-12, # of iterations =  10

     total cpu time spent up to now is       66.2 secs

     total energy              =    -186.08124529 Ry
     estimated scf accuracy    <       0.00000198 Ry
     electrostatic embedding   =      -0.01534913 Ry
     electrolyte free energy   =      -0.00003698 Ry
     correction to one-el term =       1.07501126 Ry

     iteration #  4     ecut=    20.00 Ry     beta= 0.70
     Davidson diagonalization with overlap

---- Real-time Memory Report at c_bands before calling an iterative solver
           254 MiB given to the printing process from OS
             0 MiB allocation reported by mallinfo(arena+hblkhd)
         60944 MiB available memory on the node where the printing process lives
------------------
     ethr =  2.28E-09,  avg # of iterations =  1.0

     negative rho (up, down):  3.356E-03 0.000E+00

     add environment contribution to local potential
     Polarization accuracy = 3.7E-12, # of iterations =  13

     total cpu time spent up to now is       68.0 secs

     total energy              =    -186.08124557 Ry
     estimated scf accuracy    <       0.00000233 Ry
     electrostatic embedding   =      -0.01534784 Ry
     electrolyte free energy   =      -0.00003696 Ry
     correction to one-el term =       1.07513957 Ry

     iteration #  5     ecut=    20.00 Ry     beta= 0.70
     Davidson diagonalization with overlap

---- Real-time Memory Report at c_bands before calling an iterative solver
           254 MiB given to the printing process from OS
             0 MiB allocation reported by mallinfo(arena+hblkhd)
         60942 MiB available memory on the node where the printing process lives
------------------
     ethr =  2.28E-09,  avg # of iterations =  4.0

     negative rho (up, down):  3.418E-03 0.000E+00

     add environment contribution to local potential
     Polarization accuracy = 6.9E-12, # of iterations =  17

     total cpu time spent up to now is       69.9 secs

     total energy              =    -186.08123356 Ry
     estimated scf accuracy    <       0.00000017 Ry
     electrostatic embedding   =      -0.01540318 Ry
     electrolyte free energy   =      -0.00003725 Ry
     correction to one-el term =       1.07066755 Ry

     iteration #  6     ecut=    20.00 Ry     beta= 0.70
     Davidson diagonalization with overlap

---- Real-time Memory Report at c_bands before calling an iterative solver
           254 MiB given to the printing process from OS
             0 MiB allocation reported by mallinfo(arena+hblkhd)
         60941 MiB available memory on the node where the printing process lives
------------------
     ethr =  1.08E-09,  avg # of iterations =  5.0

     negative rho (up, down):  3.446E-03 0.000E+00

     add environment contribution to local potential
     Polarization accuracy = 4.3E-12, # of iterations =  12

     total cpu time spent up to now is       71.7 secs

     total energy              =    -186.08121932 Ry
     estimated scf accuracy    <       0.00000463 Ry
     electrostatic embedding   =      -0.01544093 Ry
     electrolyte free energy   =      -0.00003757 Ry
     correction to one-el term =       1.06900542 Ry

     iteration #  7     ecut=    20.00 Ry     beta= 0.70
     Davidson diagonalization with overlap

---- Real-time Memory Report at c_bands before calling an iterative solver
           254 MiB given to the printing process from OS
             0 MiB allocation reported by mallinfo(arena+hblkhd)
         60940 MiB available memory on the node where the printing process lives
------------------
     ethr =  1.08E-09,  avg # of iterations =  1.0

     negative rho (up, down):  3.480E-03 0.000E+00

     add environment contribution to local potential
     Polarization accuracy = 4.4E-12, # of iterations =  13

     total cpu time spent up to now is       73.6 secs

     total energy              =    -186.08121728 Ry
     estimated scf accuracy    <       0.00000426 Ry
     electrostatic embedding   =      -0.01544822 Ry
     electrolyte free energy   =      -0.00003747 Ry
     correction to one-el term =       1.06993564 Ry

     iteration #  8     ecut=    20.00 Ry     beta= 0.70
     Davidson diagonalization with overlap

---- Real-time Memory Report at c_bands before calling an iterative solver
           254 MiB given to the printing process from OS
             0 MiB allocation reported by mallinfo(arena+hblkhd)
         60938 MiB available memory on the node where the printing process lives
------------------
     ethr =  1.08E-09,  avg # of iterations =  4.0

     negative rho (up, down):  3.489E-03 0.000E+00

     add environment contribution to local potential
     Polarization accuracy = 6.4E-12, # of iterations =  11

     total cpu time spent up to now is       75.5 secs

     total energy              =    -186.08122752 Ry
     estimated scf accuracy    <       0.00000005 Ry
     electrostatic embedding   =      -0.01541642 Ry
     electrolyte free energy   =      -0.00003704 Ry
     correction to one-el term =       1.07645282 Ry

     iteration #  9     ecut=    20.00 Ry     beta= 0.70
     Davidson diagonalization with overlap

---- Real-time Memory Report at c_bands before calling an iterative solver
           254 MiB given to the printing process from OS
             0 MiB allocation reported by mallinfo(arena+hblkhd)
         60937 MiB available memory on the node where the printing process lives
------------------
     ethr =  3.39E-10,  avg # of iterations =  5.0

     negative rho (up, down):  3.502E-03 0.000E+00

     add environment contribution to local potential
     Polarization accuracy = 5.2E-12, # of iterations =  13

     total cpu time spent up to now is       77.3 secs

     total energy              =    -186.08123249 Ry
     estimated scf accuracy    <       0.00000029 Ry
     electrostatic embedding   =      -0.01539048 Ry
     electrolyte free energy   =      -0.00003692 Ry
     correction to one-el term =       1.07965804 Ry

     iteration # 10     ecut=    20.00 Ry     beta= 0.70
     Davidson diagonalization with overlap

---- Real-time Memory Report at c_bands before calling an iterative solver
           254 MiB given to the printing process from OS
             0 MiB allocation reported by mallinfo(arena+hblkhd)
         60936 MiB available memory on the node where the printing process lives
------------------
     ethr =  3.39E-10,  avg # of iterations =  2.0

     negative rho (up, down):  3.510E-03 0.000E+00

     add environment contribution to local potential
     Polarization accuracy = 4.9E-12, # of iterations =  12

     total cpu time spent up to now is       78.9 secs

     total energy              =    -186.08123382 Ry
     estimated scf accuracy    <       0.00000022 Ry
     electrostatic embedding   =      -0.01538550 Ry
     electrolyte free energy   =      -0.00003691 Ry
     correction to one-el term =       1.08062204 Ry

     iteration # 11     ecut=    20.00 Ry     beta= 0.70
     Davidson diagonalization with overlap

---- Real-time Memory Report at c_bands before calling an iterative solver
           254 MiB given to the printing process from OS
             0 MiB allocation reported by mallinfo(arena+hblkhd)
         60936 MiB available memory on the node where the printing process lives
------------------
     ethr =  3.39E-10,  avg # of iterations =  3.0

     negative rho (up, down):  3.301E-03 0.000E+00

     the potential shift due to the Gaussian-smeared nuclei is    -0.1033 ev

     total cpu time spent up to now is       80.4 secs

     End of self-consistent calculation

          k = 0.0000 0.0000 0.0000 (  5049 PWs)   bands (ev):

   -16.7249 -14.4859 -11.2428  -7.8285  -7.7889  -7.3455  -6.3944  -5.2760
    -4.6714  -4.1101  -3.9549  -2.8910

     occupation numbers 
     1.0000   1.0000   1.0000   1.0000   1.0000   1.0000   1.0000   1.0000
     0.0000   0.0000   0.0000   0.0000

     the Fermi energy is    -5.2664 ev

     WARNING: integrated charge=    16.00000000, expected=    15.99930000

!    total energy              =    -186.08123125 Ry

     total all-electron energy =     -2319.464691 Ry
     estimated scf accuracy    <          1.2E-09 Ry
     smearing contrib. (-TS)   =       0.00000000 Ry
     internal energy E=F+TS    =    -186.08123125 Ry

     The total energy is F=E-TS. E is the sum of the following terms:
     one-electron contribution =    -416.36292911 Ry
     hartree contribution      =     209.53346105 Ry
     xc contribution           =     -24.25475161 Ry
     ewald contribution        =     186.30364135 Ry
     one-center paw contrib.   =    -142.36471375 Ry
      -> PAW hartree energy AE =      11.53166732 Ry
      -> PAW hartree energy PS =     -11.48581477 Ry
      -> PAW xc energy AE      =    -163.37931582 Ry
      -> PAW xc energy PS      =      20.96874952 Ry
      -> total E_H with PAW    =     209.57931361 Ry
      -> total E_XC with PAW   =    -166.66531791 Ry
     electrostatic embedding   =      -0.01539516 Ry
     electrolyte free energy   =      -0.00003703 Ry
     correction to one-el term =       1.07949300 Ry

     WARNING: you are using the parabolic pbc correction;
              the potential shift above must be added to 
              band and Fermi energies.

     convergence has been achieved in  11 iterations

     negative rho (up, down):  3.301E-03 0.000E+00
     The global environment contribution to forces
     atom    1 type  1   force =    -0.00000000   -0.00000000   -0.04623657
     atom    2 type  1   force =     0.00000000    0.00000000    0.04791352
     atom    3 type  1   force =    -0.00000000   -0.00000000    0.00719860
     atom    4 type  1   force =     0.00000000    0.00000000   -0.00550845
 


***************************************************

     Finished Charge convergence step :   1

     DFT Fermi level calculated as    -5.26636730

     Charge trapped in surface states:     0.00016565 e

     Charge Accuracy <     0.00021000

     Difference between bulk and DFT fermi:    -0.00755345

     Now using DFT charge of:      0.00091000

***************************************************
     charge density from previous step

     Check: negative core charge=   -0.000003

     negative rho (up, down):  3.301E-03 0.000E+00
     extrapolated charge   16.00000, renormalised to   15.99909

Environ Warning (1005): wrong integral of erfc function


     add environment contribution to local potential
     Polarization accuracy = 8.8E-12, # of iterations =  13

     Forces acting on atoms (cartesian axes, Ry/au):

     atom    1 type  1   force =     0.00000000    0.00000000    0.01064831
     atom    2 type  1   force =     0.00000000    0.00000000   -0.01064831
     atom    3 type  1   force =     0.00000000    0.00000000    0.00128201
     atom    4 type  1   force =     0.00000000    0.00000000   -0.00128201
     The non-local contrib.  to forces
     atom    1 type  1   force =     0.00000000    0.00000000   -0.04170960
     atom    2 type  1   force =     0.00000000    0.00000000    0.04170960
     atom    3 type  1   force =     0.00000000    0.00000000   -0.05650587
     atom    4 type  1   force =     0.00000000    0.00000000    0.05650587
     The ionic contribution  to forces
     atom    1 type  1   force =    -0.00000000   -0.00000000    8.79312658
     atom    2 type  1   force =    -0.00000000   -0.00000000   -8.79312658
     atom    3 type  1   force =     0.00000000    0.00000000   -2.98930598
     atom    4 type  1   force =    -0.00000000    0.00000000    2.98930598
     The local contribution  to forces
     atom    1 type  1   force =     0.00000000   -0.00000000   -8.69603840
     atom    2 type  1   force =     0.00000000   -0.00000000    8.69603840
     atom    3 type  1   force =    -0.00000000    0.00000000    3.03504255
     atom    4 type  1   force =     0.00000000   -0.00000000   -3.03504255
     The core correction contribution to forces
     atom    1 type  1   force =     0.00000000    0.00000000    0.00235265
     atom    2 type  1   force =     0.00000000    0.00000000   -0.00235265
     atom    3 type  1   force =    -0.00000000   -0.00000000    0.00569113
     atom    4 type  1   force =     0.00000000    0.00000000   -0.00569113
     The Hubbard contrib.    to forces
     atom    1 type  1   force =     0.00000000    0.00000000    0.00000000
     atom    2 type  1   force =     0.00000000    0.00000000    0.00000000
     atom    3 type  1   force =     0.00000000    0.00000000    0.00000000
     atom    4 type  1   force =     0.00000000    0.00000000    0.00000000
     The SCF correction term to forces
     atom    1 type  1   force =    -0.00000000   -0.00000000   -0.00000787
     atom    2 type  1   force =     0.00000000    0.00000000    0.00000787
     atom    3 type  1   force =     0.00000000   -0.00000000    0.00000666
     atom    4 type  1   force =    -0.00000000    0.00000000   -0.00000666

     Total force =     0.015168     Total SCF correction =     0.000015

     total cpu time spent up to now is       82.6 secs

     Self-consistent Calculation

     iteration #  1     ecut=    20.00 Ry     beta= 0.70
     Davidson diagonalization with overlap

---- Real-time Memory Report at c_bands before calling an iterative solver
           254 MiB given to the printing process from OS
             0 MiB allocation reported by mallinfo(arena+hblkhd)
         60951 MiB available memory on the node where the printing process lives
------------------
     ethr =  1.00E-06,  avg # of iterations =  1.0

     Threshold (ethr) on eigenvalues was too large:
     Diagonalizing with lowered threshold

     Davidson diagonalization with overlap

---- Real-time Memory Report at c_bands before calling an iterative solver
           254 MiB given to the printing process from OS
             0 MiB allocation reported by mallinfo(arena+hblkhd)
         60951 MiB available memory on the node where the printing process lives
------------------
     ethr =  3.71E-09,  avg # of iterations =  1.0

     negative rho (up, down):  3.324E-03 0.000E+00

     add environment contribution to local potential
     Polarization accuracy = 8.3E-12, # of iterations =  12

     total cpu time spent up to now is       84.5 secs

     total energy              =    -186.08123741 Ry
     estimated scf accuracy    <       0.00000058 Ry
     electrostatic embedding   =      -0.01542779 Ry
     electrolyte free energy   =      -0.00003669 Ry
     correction to one-el term =       1.06546585 Ry

     iteration #  2     ecut=    20.00 Ry     beta= 0.70
     Davidson diagonalization with overlap

---- Real-time Memory Report at c_bands before calling an iterative solver
           254 MiB given to the printing process from OS
             0 MiB allocation reported by mallinfo(arena+hblkhd)
         60946 MiB available memory on the node where the printing process lives
------------------
     ethr =  3.63E-09,  avg # of iterations =  3.0

     negative rho (up, down):  3.323E-03 0.000E+00

     add environment contribution to local potential
     Polarization accuracy = 7.4E-12, # of iterations =   5

     total cpu time spent up to now is       86.2 secs

     total energy              =    -186.08123491 Ry
     estimated scf accuracy    <       0.00000288 Ry
     electrostatic embedding   =      -0.01544266 Ry
     electrolyte free energy   =      -0.00003686 Ry
     correction to one-el term =       1.06509926 Ry

     iteration #  3     ecut=    20.00 Ry     beta= 0.70
     Davidson diagonalization with overlap

---- Real-time Memory Report at c_bands before calling an iterative solver
           254 MiB given to the printing process from OS
             0 MiB allocation reported by mallinfo(arena+hblkhd)
         60945 MiB available memory on the node where the printing process lives
------------------
     ethr =  3.63E-09,  avg # of iterations =  1.0

     negative rho (up, down):  3.316E-03 0.000E+00

     add environment contribution to local potential
     Polarization accuracy = 4.9E-12, # of iterations =  13

     total cpu time spent up to now is       87.9 secs

     total energy              =    -186.08123533 Ry
     estimated scf accuracy    <       0.00000333 Ry
     electrostatic embedding   =      -0.01544290 Ry
     electrolyte free energy   =      -0.00003682 Ry
     correction to one-el term =       1.06518813 Ry

     iteration #  4     ecut=    20.00 Ry     beta= 0.70
     Davidson diagonalization with overlap

---- Real-time Memory Report at c_bands before calling an iterative solver
           254 MiB given to the printing process from OS
             0 MiB allocation reported by mallinfo(arena+hblkhd)
         60943 MiB available memory on the node where the printing process lives
------------------
     ethr =  3.63E-09,  avg # of iterations =  2.0

     negative rho (up, down):  3.337E-03 0.000E+00

     add environment contribution to local potential
     Polarization accuracy = 4.6E-12, # of iterations =  11

     total cpu time spent up to now is       89.5 secs

     total energy              =    -186.08123613 Ry
     estimated scf accuracy    <       0.00000516 Ry
     electrostatic embedding   =      -0.01545144 Ry
     electrolyte free energy   =      -0.00003670 Ry
     correction to one-el term =       1.06473762 Ry

     iteration #  5     ecut=    20.00 Ry     beta= 0.70
     Davidson diagonalization with overlap

---- Real-time Memory Report at c_bands before calling an iterative solver
           254 MiB given to the printing process from OS
             0 MiB allocation reported by mallinfo(arena+hblkhd)
         60942 MiB available memory on the node where the printing process lives
------------------
     ethr =  3.63E-09,  avg # of iterations =  2.0

     negative rho (up, down):  3.410E-03 0.000E+00

     add environment contribution to local potential
     Polarization accuracy = 9.7E-12, # of iterations =  15

     total cpu time spent up to now is       91.4 secs

     total energy              =    -186.08123008 Ry
     estimated scf accuracy    <       0.00000264 Ry
     electrostatic embedding   =      -0.01545448 Ry
     electrolyte free energy   =      -0.00003680 Ry
     correction to one-el term =       1.06410926 Ry

     iteration #  6     ecut=    20.00 Ry     beta= 0.70
     Davidson diagonalization with overlap

---- Real-time Memory Report at c_bands before calling an iterative solver
           254 MiB given to the printing process from OS
             0 MiB allocation reported by mallinfo(arena+hblkhd)
         60941 MiB available memory on the node where the printing process lives
------------------
     ethr =  3.63E-09,  avg # of iterations =  4.0

     negative rho (up, down):  3.485E-03 0.000E+00

     add environment contribution to local potential
     Polarization accuracy = 5.1E-12, # of iterations =  12

     total cpu time spent up to now is       93.1 secs

     total energy              =    -186.08122161 Ry
     estimated scf accuracy    <       0.00000191 Ry
     electrostatic embedding   =      -0.01543165 Ry
     electrolyte free energy   =      -0.00003707 Ry
     correction to one-el term =       1.06586395 Ry

     iteration #  7     ecut=    20.00 Ry     beta= 0.70
     Davidson diagonalization with overlap

---- Real-time Memory Report at c_bands before calling an iterative solver
           254 MiB given to the printing process from OS
             0 MiB allocation reported by mallinfo(arena+hblkhd)
         60940 MiB available memory on the node where the printing process lives
------------------
     ethr =  3.63E-09,  avg # of iterations =  3.0

     negative rho (up, down):  3.511E-03 0.000E+00

     add environment contribution to local potential
     Polarization accuracy = 6.2E-12, # of iterations =  12

     total cpu time spent up to now is       94.9 secs

     total energy              =    -186.08121353 Ry
     estimated scf accuracy    <       0.00000700 Ry
     electrostatic embedding   =      -0.01542745 Ry
     electrolyte free energy   =      -0.00003708 Ry
     correction to one-el term =       1.06759566 Ry

     iteration #  8     ecut=    20.00 Ry     beta= 0.70
     Davidson diagonalization with overlap

---- Real-time Memory Report at c_bands before calling an iterative solver
           254 MiB given to the printing process from OS
             0 MiB allocation reported by mallinfo(arena+hblkhd)
         60938 MiB available memory on the node where the printing process lives
------------------
     ethr =  3.63E-09,  avg # of iterations =  4.0

     negative rho (up, down):  3.571E-03 0.000E+00

     add environment contribution to local potential
     Polarization accuracy = 6.9E-12, # of iterations =  12

     total cpu time spent up to now is       96.7 secs

     total energy              =    -186.08122176 Ry
     estimated scf accuracy    <       0.00000042 Ry
     electrostatic embedding   =      -0.01542488 Ry
     electrolyte free energy   =      -0.00003675 Ry
     correction to one-el term =       1.07173119 Ry

     iteration #  9     ecut=    20.00 Ry     beta= 0.70
     Davidson diagonalization with overlap

---- Real-time Memory Report at c_bands before calling an iterative solver
           254 MiB given to the printing process from OS
             0 MiB allocation reported by mallinfo(arena+hblkhd)
         60937 MiB available memory on the node where the printing process lives
------------------
     ethr =  2.63E-09,  avg # of iterations =  1.0

     negative rho (up, down):  3.572E-03 0.000E+00

     add environment contribution to local potential
     Polarization accuracy = 4.1E-12, # of iterations =  13

     total cpu time spent up to now is       98.4 secs

     total energy              =    -186.08122347 Ry
     estimated scf accuracy    <       0.00000028 Ry
     electrostatic embedding   =      -0.01540700 Ry
     electrolyte free energy   =      -0.00003662 Ry
     correction to one-el term =       1.07585214 Ry

     iteration # 10     ecut=    20.00 Ry     beta= 0.70
     Davidson diagonalization with overlap

---- Real-time Memory Report at c_bands before calling an iterative solver
           254 MiB given to the printing process from OS
             0 MiB allocation reported by mallinfo(arena+hblkhd)
         60936 MiB available memory on the node where the printing process lives
------------------
     ethr =  1.73E-09,  avg # of iterations =  4.0

     negative rho (up, down):  3.575E-03 0.000E+00

     add environment contribution to local potential
     Polarization accuracy = 8.2E-12, # of iterations =  10

     total cpu time spent up to now is      100.2 secs

     total energy              =    -186.08122888 Ry
     estimated scf accuracy    <       0.00000005 Ry
     electrostatic embedding   =      -0.01539281 Ry
     electrolyte free energy   =      -0.00003653 Ry
     correction to one-el term =       1.07801026 Ry

     iteration # 11     ecut=    20.00 Ry     beta= 0.70
     Davidson diagonalization with overlap

---- Real-time Memory Report at c_bands before calling an iterative solver
           254 MiB given to the printing process from OS
             0 MiB allocation reported by mallinfo(arena+hblkhd)
         60936 MiB available memory on the node where the printing process lives
------------------
     ethr =  3.20E-10,  avg # of iterations =  2.0

     negative rho (up, down):  3.301E-03 0.000E+00

     the potential shift due to the Gaussian-smeared nuclei is    -0.1033 ev

     total cpu time spent up to now is      101.7 secs

     End of self-consistent calculation

          k = 0.0000 0.0000 0.0000 (  5049 PWs)   bands (ev):

   -16.7245 -14.4853 -11.2423  -7.8281  -7.7886  -7.3449  -6.3939  -5.2754
    -4.6708  -4.1096  -3.9544  -2.8904

     occupation numbers 
     1.0000   1.0000   1.0000   1.0000   1.0000   1.0000   1.0000   1.0000
     0.0000   0.0000   0.0000   0.0000

     the Fermi energy is    -5.2658 ev

     WARNING: integrated charge=    16.00000000, expected=    15.99909000

!    total energy              =    -186.08122838 Ry

     total all-electron energy =     -2319.464688 Ry
     estimated scf accuracy    <          7.0E-09 Ry
     smearing contrib. (-TS)   =       0.00000000 Ry
     internal energy E=F+TS    =    -186.08122838 Ry

     The total energy is F=E-TS. E is the sum of the following terms:
     one-electron contribution =    -416.36204423 Ry
     hartree contribution      =     209.53388454 Ry
     xc contribution           =     -24.25480760 Ry
     ewald contribution        =     186.30364135 Ry
     one-center paw contrib.   =    -142.36472463 Ry
      -> PAW hartree energy AE =      11.53186795 Ry
      -> PAW hartree energy PS =     -11.48601450 Ry
      -> PAW xc energy AE      =    -163.37940036 Ry
      -> PAW xc energy PS      =      20.96882228 Ry
      -> total E_H with PAW    =     209.57973800 Ry
      -> total E_XC with PAW   =    -166.66538569 Ry
     electrostatic embedding   =      -0.01538703 Ry
     electrolyte free energy   =      -0.00003654 Ry
     correction to one-el term =       1.07824575 Ry

     WARNING: you are using the parabolic pbc correction;
              the potential shift above must be added to 
              band and Fermi energies.

     convergence has been achieved in  11 iterations

     negative rho (up, down):  3.301E-03 0.000E+00
     The global environment contribution to forces
     atom    1 type  1   force =    -0.00000000    0.00000000   -0.04644171
     atom    2 type  1   force =    -0.00000000    0.00000000    0.04785039
     atom    3 type  1   force =     0.00000000   -0.00000000    0.00707755
     atom    4 type  1   force =    -0.00000000   -0.00000000   -0.00565775
 


***************************************************

     Finished Charge convergence step :   2

     DFT Fermi level calculated as    -5.26581571

     Charge trapped in surface states:     0.00015324 e

     Charge Accuracy <     0.00006300

     Difference between bulk and DFT fermi:    -0.00410634

     Now using DFT charge of:      0.00097300

***************************************************
     charge density from previous step

     Check: negative core charge=   -0.000003

     negative rho (up, down):  3.301E-03 0.000E+00
     extrapolated charge   16.00000, renormalised to   15.99903

Environ Warning (1005): wrong integral of erfc function


     add environment contribution to local potential
     Polarization accuracy = 7.6E-12, # of iterations =  12

     Forces acting on atoms (cartesian axes, Ry/au):

     atom    1 type  1   force =     0.00000000    0.00000000    0.01062697
     atom    2 type  1   force =     0.00000000    0.00000000   -0.01062697
     atom    3 type  1   force =     0.00000000    0.00000000    0.00127852
     atom    4 type  1   force =     0.00000000    0.00000000   -0.00127852
     The non-local contrib.  to forces
     atom    1 type  1   force =     0.00000000    0.00000000   -0.04174485
     atom    2 type  1   force =     0.00000000    0.00000000    0.04174485
     atom    3 type  1   force =     0.00000000    0.00000000   -0.05651190
     atom    4 type  1   force =     0.00000000    0.00000000    0.05651190
     The ionic contribution  to forces
     atom    1 type  1   force =    -0.00000000   -0.00000000    8.79312658
     atom    2 type  1   force =    -0.00000000   -0.00000000   -8.79312658
     atom    3 type  1   force =     0.00000000    0.00000000   -2.98930598
     atom    4 type  1   force =    -0.00000000    0.00000000    2.98930598
     The local contribution  to forces
     atom    1 type  1   force =     0.00000000   -0.00000000   -8.69603668
     atom    2 type  1   force =     0.00000000   -0.00000000    8.69603668
     atom    3 type  1   force =    -0.00000000    0.00000000    3.03507894
     atom    4 type  1   force =     0.00000000   -0.00000000   -3.03507894
     The core correction contribution to forces
     atom    1 type  1   force =     0.00000000    0.00000000    0.00235653
     atom    2 type  1   force =     0.00000000    0.00000000   -0.00235653
     atom    3 type  1   force =    -0.00000000   -0.00000000    0.00569179
     atom    4 type  1   force =     0.00000000   -0.00000000   -0.00569179
     The Hubbard contrib.    to forces
     atom    1 type  1   force =     0.00000000    0.00000000    0.00000000
     atom    2 type  1   force =     0.00000000    0.00000000    0.00000000
     atom    3 type  1   force =     0.00000000    0.00000000    0.00000000
     atom    4 type  1   force =     0.00000000    0.00000000    0.00000000
     The SCF correction term to forces
     atom    1 type  1   force =    -0.00000000   -0.00000000    0.00007144
     atom    2 type  1   force =    -0.00000000   -0.00000000   -0.00007144
     atom    3 type  1   force =     0.00000000    0.00000000   -0.00004198
     atom    4 type  1   force =     0.00000000    0.00000000    0.00004198

     Total force =     0.015137     Total SCF correction =     0.000117

     total cpu time spent up to now is      103.8 secs

     Self-consistent Calculation

     iteration #  1     ecut=    20.00 Ry     beta= 0.70
     Davidson diagonalization with overlap

---- Real-time Memory Report at c_bands before calling an iterative solver
           254 MiB given to the printing process from OS
             0 MiB allocation reported by mallinfo(arena+hblkhd)
         60951 MiB available memory on the node where the printing process lives
------------------
     ethr =  1.00E-06,  avg # of iterations =  1.0

     Threshold (ethr) on eigenvalues was too large:
     Diagonalizing with lowered threshold

     Davidson diagonalization with overlap

---- Real-time Memory Report at c_bands before calling an iterative solver
           254 MiB given to the printing process from OS
             0 MiB allocation reported by mallinfo(arena+hblkhd)
         60951 MiB available memory on the node where the printing process lives
------------------
     ethr =  3.57E-09,  avg # of iterations =  2.0

     negative rho (up, down):  3.328E-03 0.000E+00

     add environment contribution to local potential
     Polarization accuracy = 4.5E-12, # of iterations =  13

     total cpu time spent up to now is      105.9 secs

     total energy              =    -186.08123471 Ry
     estimated scf accuracy    <       0.00000056 Ry
     electrostatic embedding   =      -0.01544062 Ry
     electrolyte free energy   =      -0.00003663 Ry
     correction to one-el term =       1.06304688 Ry

     iteration #  2     ecut=    20.00 Ry     beta= 0.70
     Davidson diagonalization with overlap

---- Real-time Memory Report at c_bands before calling an iterative solver
           254 MiB given to the printing process from OS
             0 MiB allocation reported by mallinfo(arena+hblkhd)
         60946 MiB available memory on the node where the printing process lives
------------------
     ethr =  3.49E-09,  avg # of iterations =  4.0

     negative rho (up, down):  3.328E-03 0.000E+00

     add environment contribution to local potential
     Polarization accuracy = 9.6E-12, # of iterations =   1

     total cpu time spent up to now is      107.5 secs

     total energy              =    -186.08123210 Ry
     estimated scf accuracy    <       0.00000285 Ry
     electrostatic embedding   =      -0.01545677 Ry
     electrolyte free energy   =      -0.00003675 Ry
     correction to one-el term =       1.06282861 Ry

     iteration #  3     ecut=    20.00 Ry     beta= 0.70
     Davidson diagonalization with overlap

---- Real-time Memory Report at c_bands before calling an iterative solver
           254 MiB given to the printing process from OS
             0 MiB allocation reported by mallinfo(arena+hblkhd)
         60944 MiB available memory on the node where the printing process lives
------------------
     ethr =  3.49E-09,  avg # of iterations =  1.0

     negative rho (up, down):  3.324E-03 0.000E+00

     add environment contribution to local potential
     Polarization accuracy = 8.1E-12, # of iterations =   9

     total cpu time spent up to now is      109.1 secs

     total energy              =    -186.08123203 Ry
     estimated scf accuracy    <       0.00000300 Ry
     electrostatic embedding   =      -0.01545645 Ry
     electrolyte free energy   =      -0.00003690 Ry
     correction to one-el term =       1.06302025 Ry

     iteration #  4     ecut=    20.00 Ry     beta= 0.70
     Davidson diagonalization with overlap

---- Real-time Memory Report at c_bands before calling an iterative solver
           254 MiB given to the printing process from OS
             0 MiB allocation reported by mallinfo(arena+hblkhd)
         60943 MiB available memory on the node where the printing process lives
------------------
     ethr =  3.49E-09,  avg # of iterations =  1.0

     negative rho (up, down):  3.376E-03 0.000E+00

     add environment contribution to local potential
     Polarization accuracy = 7.4E-12, # of iterations =  15

     total cpu time spent up to now is      110.9 secs

     total energy              =    -186.08123252 Ry
     estimated scf accuracy    <       0.00000345 Ry
     electrostatic embedding   =      -0.01545473 Ry
     electrolyte free energy   =      -0.00003671 Ry
     correction to one-el term =       1.06298833 Ry

     iteration #  5     ecut=    20.00 Ry     beta= 0.70
     Davidson diagonalization with overlap

---- Real-time Memory Report at c_bands before calling an iterative solver
           254 MiB given to the printing process from OS
             0 MiB allocation reported by mallinfo(arena+hblkhd)
         60942 MiB available memory on the node where the printing process lives
------------------
     ethr =  3.49E-09,  avg # of iterations =  4.0

     negative rho (up, down):  3.488E-03 0.000E+00

     add environment contribution to local potential
     Polarization accuracy = 9.1E-12, # of iterations =  15

     total cpu time spent up to now is      112.7 secs

     total energy              =    -186.08121764 Ry
     estimated scf accuracy    <       0.00000068 Ry
     electrostatic embedding   =      -0.01547772 Ry
[...]
     estimated scf accuracy    <       0.00000064 Ry
     electrostatic embedding   =      -0.01541925 Ry
     electrolyte free energy   =      -0.00003670 Ry
     correction to one-el term =       1.06598170 Ry

     iteration #  2     ecut=    20.00 Ry     beta= 0.70
     Davidson diagonalization with overlap

---- Real-time Memory Report at c_bands before calling an iterative solver
           254 MiB given to the printing process from OS
             0 MiB allocation reported by mallinfo(arena+hblkhd)
         60947 MiB available memory on the node where the printing process lives
------------------
     ethr =  3.99E-09,  avg # of iterations =  3.0

     negative rho (up, down):  3.323E-03 0.000E+00

     add environment contribution to local potential
     Polarization accuracy = 8.9E-12, # of iterations =   6

     total cpu time spent up to now is      220.5 secs

     total energy              =    -186.08123584 Ry
     estimated scf accuracy    <       0.00000318 Ry
     electrostatic embedding   =      -0.01543389 Ry
     electrolyte free energy   =      -0.00003683 Ry
     correction to one-el term =       1.06563082 Ry

     iteration #  3     ecut=    20.00 Ry     beta= 0.70
     Davidson diagonalization with overlap

---- Real-time Memory Report at c_bands before calling an iterative solver
           254 MiB given to the printing process from OS
             0 MiB allocation reported by mallinfo(arena+hblkhd)
         60946 MiB available memory on the node where the printing process lives
------------------
     ethr =  3.99E-09,  avg # of iterations =  1.0

     negative rho (up, down):  3.319E-03 0.000E+00

     add environment contribution to local potential
     Polarization accuracy = 5.8E-12, # of iterations =  11

     total cpu time spent up to now is      222.2 secs

     total energy              =    -186.08123618 Ry
     estimated scf accuracy    <       0.00000400 Ry
     electrostatic embedding   =      -0.01543407 Ry
     electrolyte free energy   =      -0.00003679 Ry
     correction to one-el term =       1.06576913 Ry

     iteration #  4     ecut=    20.00 Ry     beta= 0.70
     Davidson diagonalization with overlap

---- Real-time Memory Report at c_bands before calling an iterative solver
           254 MiB given to the printing process from OS
             0 MiB allocation reported by mallinfo(arena+hblkhd)
         60945 MiB available memory on the node where the printing process lives
------------------
     ethr =  3.99E-09,  avg # of iterations =  1.0

     negative rho (up, down):  3.352E-03 0.000E+00

     add environment contribution to local potential
     Polarization accuracy = 9.2E-12, # of iterations =  12

     total cpu time spent up to now is      223.9 secs

     total energy              =    -186.08123581 Ry
     estimated scf accuracy    <       0.00000493 Ry
     electrostatic embedding   =      -0.01543678 Ry
     electrolyte free energy   =      -0.00003671 Ry
     correction to one-el term =       1.06561890 Ry

     iteration #  5     ecut=    20.00 Ry     beta= 0.70
     Davidson diagonalization with overlap

---- Real-time Memory Report at c_bands before calling an iterative solver
           254 MiB given to the printing process from OS
             0 MiB allocation reported by mallinfo(arena+hblkhd)
         60944 MiB available memory on the node where the printing process lives
------------------
     ethr =  3.99E-09,  avg # of iterations =  4.0

     negative rho (up, down):  3.491E-03 0.000E+00

     add environment contribution to local potential
     Polarization accuracy = 6.2E-12, # of iterations =  19

     total cpu time spent up to now is      225.8 secs

     total energy              =    -186.08122594 Ry
     estimated scf accuracy    <       0.00000062 Ry
     electrostatic embedding   =      -0.01546496 Ry
     electrolyte free energy   =      -0.00003691 Ry
     correction to one-el term =       1.06279060 Ry

     iteration #  6     ecut=    20.00 Ry     beta= 0.70
     Davidson diagonalization with overlap

---- Real-time Memory Report at c_bands before calling an iterative solver
           254 MiB given to the printing process from OS
             0 MiB allocation reported by mallinfo(arena+hblkhd)
         60943 MiB available memory on the node where the printing process lives
------------------
     ethr =  3.86E-09,  avg # of iterations =  5.0

     negative rho (up, down):  3.517E-03 0.000E+00

     add environment contribution to local potential
     Polarization accuracy = 5.1E-12, # of iterations =  11

     total cpu time spent up to now is      227.5 secs

     total energy              =    -186.08120756 Ry
     estimated scf accuracy    <       0.00002145 Ry
     electrostatic embedding   =      -0.01547847 Ry
     electrolyte free energy   =      -0.00003748 Ry
     correction to one-el term =       1.06321440 Ry

     iteration #  7     ecut=    20.00 Ry     beta= 0.70
     Davidson diagonalization with overlap

---- Real-time Memory Report at c_bands before calling an iterative solver
           254 MiB given to the printing process from OS
             0 MiB allocation reported by mallinfo(arena+hblkhd)
         60941 MiB available memory on the node where the printing process lives
------------------
     ethr =  3.86E-09,  avg # of iterations =  1.0

     negative rho (up, down):  3.540E-03 0.000E+00

     add environment contribution to local potential
     Polarization accuracy = 6.9E-12, # of iterations =  14

     total cpu time spent up to now is      229.1 secs

     total energy              =    -186.08120117 Ry
     estimated scf accuracy    <       0.00002194 Ry
     electrostatic embedding   =      -0.01548912 Ry
     electrolyte free energy   =      -0.00003740 Ry
     correction to one-el term =       1.06337748 Ry

     iteration #  8     ecut=    20.00 Ry     beta= 0.70
     Davidson diagonalization with overlap

---- Real-time Memory Report at c_bands before calling an iterative solver
           254 MiB given to the printing process from OS
             0 MiB allocation reported by mallinfo(arena+hblkhd)
         60940 MiB available memory on the node where the printing process lives
------------------
     ethr =  3.86E-09,  avg # of iterations =  4.0

     negative rho (up, down):  3.549E-03 0.000E+00

     add environment contribution to local potential
     Polarization accuracy = 8.0E-12, # of iterations =  13

     total cpu time spent up to now is      230.9 secs

     total energy              =    -186.08120870 Ry
     estimated scf accuracy    <       0.00000408 Ry
     electrostatic embedding   =      -0.01548117 Ry
     electrolyte free energy   =      -0.00003700 Ry
     correction to one-el term =       1.06751273 Ry

     iteration #  9     ecut=    20.00 Ry     beta= 0.70
     Davidson diagonalization with overlap

---- Real-time Memory Report at c_bands before calling an iterative solver
           254 MiB given to the printing process from OS
             0 MiB allocation reported by mallinfo(arena+hblkhd)
         60939 MiB available memory on the node where the printing process lives
------------------
     ethr =  3.86E-09,  avg # of iterations =  4.0

     negative rho (up, down):  3.558E-03 0.000E+00

     add environment contribution to local potential
     Polarization accuracy = 8.1E-12, # of iterations =  13

     total cpu time spent up to now is      232.7 secs

     total energy              =    -186.08122370 Ry
     estimated scf accuracy    <       0.00000006 Ry
     electrostatic embedding   =      -0.01542741 Ry
     electrolyte free energy   =      -0.00003672 Ry
     correction to one-el term =       1.07447890 Ry

     iteration # 10     ecut=    20.00 Ry     beta= 0.70
     Davidson diagonalization with overlap

---- Real-time Memory Report at c_bands before calling an iterative solver
           254 MiB given to the printing process from OS
             0 MiB allocation reported by mallinfo(arena+hblkhd)
         60938 MiB available memory on the node where the printing process lives
------------------
     ethr =  3.91E-10,  avg # of iterations =  5.0

     negative rho (up, down):  3.566E-03 0.000E+00

     add environment contribution to local potential
     Polarization accuracy = 9.5E-12, # of iterations =  13

     total cpu time spent up to now is      234.6 secs

     total energy              =    -186.08122910 Ry
     estimated scf accuracy    <       0.00000072 Ry
     electrostatic embedding   =      -0.01540780 Ry
     electrolyte free energy   =      -0.00003652 Ry
     correction to one-el term =       1.07708083 Ry

     iteration # 11     ecut=    20.00 Ry     beta= 0.70
     Davidson diagonalization with overlap

---- Real-time Memory Report at c_bands before calling an iterative solver
           254 MiB given to the printing process from OS
             0 MiB allocation reported by mallinfo(arena+hblkhd)
         60938 MiB available memory on the node where the printing process lives
------------------
     ethr =  3.91E-10,  avg # of iterations =  5.0

     negative rho (up, down):  3.577E-03 0.000E+00

     add environment contribution to local potential
     Polarization accuracy = 6.8E-12, # of iterations =  12

     total cpu time spent up to now is      236.6 secs

     total energy              =    -186.08122898 Ry
     estimated scf accuracy    <       0.00000006 Ry
     electrostatic embedding   =      -0.01539368 Ry
     electrolyte free energy   =      -0.00003658 Ry
     correction to one-el term =       1.07759352 Ry

     iteration # 12     ecut=    20.00 Ry     beta= 0.70
     Davidson diagonalization with overlap

---- Real-time Memory Report at c_bands before calling an iterative solver
           254 MiB given to the printing process from OS
             0 MiB allocation reported by mallinfo(arena+hblkhd)
         60938 MiB available memory on the node where the printing process lives
------------------
     ethr =  3.91E-10,  avg # of iterations =  2.0

     negative rho (up, down):  3.576E-03 0.000E+00

     add environment contribution to local potential
     Polarization accuracy = 4.7E-12, # of iterations =   8

     total cpu time spent up to now is      238.3 secs

     total energy              =    -186.08122798 Ry
     estimated scf accuracy    <       0.00000003 Ry
     electrostatic embedding   =      -0.01539393 Ry
     electrolyte free energy   =      -0.00003656 Ry
     correction to one-el term =       1.07786881 Ry

     iteration # 13     ecut=    20.00 Ry     beta= 0.70
     Davidson diagonalization with overlap

---- Real-time Memory Report at c_bands before calling an iterative solver
           254 MiB given to the printing process from OS
             0 MiB allocation reported by mallinfo(arena+hblkhd)
         60938 MiB available memory on the node where the printing process lives
------------------
     ethr =  1.59E-10,  avg # of iterations =  4.0

     negative rho (up, down):  3.301E-03 0.000E+00

     the potential shift due to the Gaussian-smeared nuclei is    -0.1033 ev

     total cpu time spent up to now is      239.8 secs

     End of self-consistent calculation

          k = 0.0000 0.0000 0.0000 (  5049 PWs)   bands (ev):

   -16.7249 -14.4857 -11.2427  -7.8285  -7.7890  -7.3453  -6.3943  -5.2758
    -4.6712  -4.1100  -3.9548  -2.8908

     occupation numbers 
     1.0000   1.0000   1.0000   1.0000   1.0000   1.0000   1.0000   1.0000
     0.0000   0.0000   0.0000   0.0000

     the Fermi energy is    -5.2662 ev

     WARNING: integrated charge=    16.00000000, expected=    15.99908862

!    total energy              =    -186.08122879 Ry

     total all-electron energy =     -2319.464689 Ry
     estimated scf accuracy    <          5.9E-09 Ry
     smearing contrib. (-TS)   =       0.00000000 Ry
     internal energy E=F+TS    =    -186.08122879 Ry

     The total energy is F=E-TS. E is the sum of the following terms:
     one-electron contribution =    -416.36215968 Ry
     hartree contribution      =     209.53385248 Ry
     xc contribution           =     -24.25480757 Ry
     ewald contribution        =     186.30364135 Ry
     one-center paw contrib.   =    -142.36472686 Ry
      -> PAW hartree energy AE =      11.53187151 Ry
      -> PAW hartree energy PS =     -11.48601785 Ry
      -> PAW xc energy AE      =    -163.37940576 Ry
      -> PAW xc energy PS      =      20.96882524 Ry
      -> total E_H with PAW    =     209.57970615 Ry
      -> total E_XC with PAW   =    -166.66538809 Ry
     electrostatic embedding   =      -0.01538760 Ry
     electrolyte free energy   =      -0.00003656 Ry
     correction to one-el term =       1.07839564 Ry

     WARNING: you are using the parabolic pbc correction;
              the potential shift above must be added to 
              band and Fermi energies.

     convergence has been achieved in  13 iterations

     negative rho (up, down):  3.301E-03 0.000E+00
     The global environment contribution to forces
     atom    1 type  1   force =     0.00000000    0.00000000   -0.04643999
     atom    2 type  1   force =    -0.00000000   -0.00000000    0.04784685
     atom    3 type  1   force =    -0.00000000    0.00000000    0.00707530
     atom    4 type  1   force =     0.00000000   -0.00000000   -0.00565734
 


***************************************************

     Finished charge convergence step :   7

     Convergence of charge with accuracy <     0.00000057 e

     Charge trapped in surface states:     0.00013676

     Difference between bulk and DFT fermi:     0.00005625

     Final Potential:    -0.22063468 V

     Output written to q-v.dat       

***************************************************

     Forces acting on atoms (cartesian axes, Ry/au):

     atom    1 type  1   force =     0.00000000    0.00000000    0.01064139
     atom    2 type  1   force =     0.00000000    0.00000000   -0.01064139
     atom    3 type  1   force =     0.00000000    0.00000000    0.00127722
     atom    4 type  1   force =     0.00000000    0.00000000   -0.00127722
     The non-local contrib.  to forces
     atom    1 type  1   force =     0.00000000    0.00000000   -0.04173595
     atom    2 type  1   force =     0.00000000    0.00000000    0.04173595
     atom    3 type  1   force =     0.00000000    0.00000000   -0.05651474
     atom    4 type  1   force =     0.00000000    0.00000000    0.05651474
     The ionic contribution  to forces
     atom    1 type  1   force =    -0.00000000   -0.00000000    8.79312658
     atom    2 type  1   force =    -0.00000000   -0.00000000   -8.79312658
     atom    3 type  1   force =     0.00000000    0.00000000   -2.98930598
     atom    4 type  1   force =    -0.00000000    0.00000000    2.98930598
     The local contribution  to forces
     atom    1 type  1   force =     0.00000000   -0.00000000   -8.69604014
     atom    2 type  1   force =     0.00000000   -0.00000000    8.69604014
     atom    3 type  1   force =    -0.00000000    0.00000000    3.03508553
     atom    4 type  1   force =     0.00000000   -0.00000000   -3.03508553
     The core correction contribution to forces
     atom    1 type  1   force =     0.00000000    0.00000000    0.00235560
     atom    2 type  1   force =     0.00000000    0.00000000   -0.00235560
     atom    3 type  1   force =    -0.00000000   -0.00000000    0.00569216
     atom    4 type  1   force =     0.00000000    0.00000000   -0.00569216
     The Hubbard contrib.    to forces
     atom    1 type  1   force =     0.00000000    0.00000000    0.00000000
     atom    2 type  1   force =     0.00000000    0.00000000    0.00000000
     atom    3 type  1   force =     0.00000000    0.00000000    0.00000000
     atom    4 type  1   force =     0.00000000    0.00000000    0.00000000
     The SCF correction term to forces
     atom    1 type  1   force =     0.00000000    0.00000000    0.00007871
     atom    2 type  1   force =     0.00000000   -0.00000000   -0.00007871
     atom    3 type  1   force =    -0.00000000   -0.00000000   -0.00004606
     atom    4 type  1   force =    -0.00000000   -0.00000000    0.00004606

     Total force =     0.015157     Total SCF correction =     0.000129

     Writing all to output data dir ./Si.save/
 
     init_run     :      1.26s CPU      1.49s WALL (       1 calls)
     electrons    :    206.63s CPU    222.47s WALL (       8 calls)
     update_pot   :      4.70s CPU      4.72s WALL (       7 calls)
     forces       :     14.66s CPU     15.61s WALL (       8 calls)

     Called by init_run:
     wfcinit      :      0.06s CPU      0.08s WALL (       1 calls)
     wfcinit:atom :      0.00s CPU      0.00s WALL (       1 calls)
     wfcinit:wfcr :      0.06s CPU      0.07s WALL (       1 calls)
     potinit      :      0.67s CPU      0.70s WALL (       1 calls)
     hinit0       :      0.43s CPU      0.49s WALL (       1 calls)

     Called by electrons:
     c_bands      :     19.99s CPU     20.05s WALL (     128 calls)
     sum_band     :     14.69s CPU     21.36s WALL (     128 calls)
     v_of_rho     :      5.86s CPU      5.88s WALL (     129 calls)
     v_h          :      0.25s CPU      0.25s WALL (     129 calls)
     v_xc         :      5.96s CPU      5.97s WALL (     137 calls)
     newd         :      9.38s CPU     15.80s WALL (     129 calls)
     PAW_pot      :     76.28s CPU     76.30s WALL (     136 calls)
     mix_rho      :     50.89s CPU     51.02s WALL (     128 calls)

     Called by c_bands:
     init_us_2    :      0.60s CPU      0.62s WALL (     264 calls)
     init_us_2:cp :      0.60s CPU      0.62s WALL (     264 calls)
     cegterg      :     16.18s CPU     16.24s WALL (     128 calls)

     Called by sum_band:
     sum_band:wei :      0.01s CPU      0.01s WALL (     128 calls)
     sum_band:loo :      2.95s CPU      2.96s WALL (     128 calls)
     sum_band:buf :      0.00s CPU      0.00s WALL (     128 calls)
     sum_band:ini :      0.28s CPU      0.29s WALL (     128 calls)
     sum_band:cal :      0.29s CPU      0.29s WALL (     135 calls)
     sum_band:bec :      0.00s CPU      0.00s WALL (     135 calls)
     addusdens    :     10.71s CPU     17.34s WALL (     128 calls)
     addusd:skk   :      0.09s CPU      0.09s WALL (     128 calls)
     addusd:dgemm :      1.98s CPU      7.63s WALL (     128 calls)
     addusd:qvan2 :      6.61s CPU      6.63s WALL (     128 calls)

     Called by *egterg:
     cdiaghg      :      0.10s CPU      0.10s WALL (     489 calls)
     cegterg:over :      0.34s CPU      0.34s WALL (     375 calls)
     cegterg:upda :      0.21s CPU      0.21s WALL (     375 calls)
     cegterg:last :      0.40s CPU      0.40s WALL (     269 calls)
     h_psi        :     14.03s CPU     14.07s WALL (     504 calls)
     s_psi        :      0.76s CPU      0.76s WALL (     504 calls)
     g_psi        :      0.13s CPU      0.13s WALL (     375 calls)

     Called by h_psi:
     h_psi:calbec :      0.81s CPU      0.82s WALL (     504 calls)
     vloc_psi     :     12.40s CPU     12.44s WALL (     504 calls)
     add_vuspsi   :      0.77s CPU      0.77s WALL (     504 calls)

     General routines
     calbec       :      1.17s CPU      1.17s WALL (     671 calls)
     fft          :      2.16s CPU      2.22s WALL (    1514 calls)
     ffts         :     25.43s CPU     25.47s WALL (   18027 calls)
     fftw         :     13.56s CPU     13.60s WALL (    9718 calls)
 
     Parallel routines

     PAW routines
     PAW_pot      :     76.28s CPU     76.30s WALL (     136 calls)
     PAW_symme    :      0.09s CPU      0.09s WALL (     264 calls)
 
     Environ routines
 
     PWSCF        :   3m42.65s CPU   4m 0.24s WALL

 
   This run was terminated on:   9:52:45  12Apr2022            

=------------------------------------------------------------------------------=
   JOB DONE.
=------------------------------------------------------------------------------=
