
     Program PWSCF v.7.0 starts on 25Mar2022 at 14:12:18 

     This program is part of the open-source Quantum ESPRESSO suite
     for quantum simulation of materials; please cite
         "P. Giannozzi et al., J. Phys.:Condens. Matter 21 395502 (2009);
         "P. Giannozzi et al., J. Phys.:Condens. Matter 29 465901 (2017);
         "P. Giannozzi et al., J. Chem. Phys. 152 154105 (2020);
          URL http://www.quantum-espresso.org", 
     in publications or presentations arising from this work. More details at
     http://www.quantum-espresso.org/quote

     Parallel version (MPI), running on     1 processors

     MPI processes distributed on     1 nodes
     20012 MiB available memory on the printing compute node when the environment starts
 
     Reading input from pw.in

     Current dimensions of program PWSCF are:
     Max number of different atomic species (ntypx) = 10
     Max number of k-points (npk) =  40000
     Max angular momentum in pseudopotentials (lmaxx) =  4
 
     Reading input from environ.in:
     * using electronic solvent mode
     * setting boundary derivatives method to SCCS default
     * setting electrolyte-boundary derivatives method to SCCS default
     
     file Si.pbe-n-kjpaw_psl.1.0.0.UPF: wavefunction(s)  3S 3P renormalized


*******************************************

     Running initial calculation for flatband.

     Using charge of:     0.00000000

*******************************************
     Message from routine setup:
     using ibrav=0 with symmetry is DISCOURAGED, use correct ibrav instead

     Subspace diagonalization in iterative solution of the eigenvalue problem:
     a serial algorithm will be used

 
     G-vector sticks info
     --------------------
     sticks:   dense  smooth     PW     G-vecs:    dense   smooth      PW
     Sum         341     341     89                40125    40125    5049
 
     Using Slab Decomposition
 


     bravais-lattice index     =            0
     lattice parameter (alat)  =       7.3075  a.u.
     unit-cell volume          =    3311.1351 (a.u.)^3
     number of atoms/cell      =            4
     number of atomic types    =            1
     number of electrons       =        16.00
     number of Kohn-Sham states=           12
     kinetic-energy cutoff     =      20.0000  Ry
     charge density cutoff     =      80.0000  Ry
     scf convergence threshold =      1.0E-08
     mixing beta               =       0.7000
     number of iterations used =            8  local-TF  mixing
     Exchange-correlation= SLA  PW   PBX  PBC
                           (   1   4   3   4   0   0   0)

     ================================================================================
 
                                  Environ Setup Summary

     ================================================================================
 
     Please cite
         "O. Andreussi, I. Dabo and N. Marzari, J. Chem. Phys. 136, 064102 (2012)"
     in publications or presentations arising from this work.

     Parameters
     ==========

     compensation onset threshold      =               0.1000E+00
     static permittivity               =                    78.30

     Solvent Boundary
     ================

     solvent mode                      =               electronic
     derivatives method                =                    chain
     electrolyte derivatives method    =                    chain
     numerical core for derivatives    =                      fft
     switching function adopted        =                     SCCS
     density limit for vacuum region   =               0.5000E-02
     density limit for bulk solvent    =               0.1000E-03

     Electrostatic Setup
     ===================

     electrostatic problem to solve    =              generalized
     numerical solver adopted          =              fixed-point
     type of auxiliary density adopted =                     full
     numerical core for poisson        =                      fft
     type of pbc corrections           =                   ms-gcs
     numerical core for corrections    =                      1da

     ================================================================================
 

     celldm(1)=   7.307524  celldm(2)=   0.000000  celldm(3)=   0.000000
     celldm(4)=   0.000000  celldm(5)=   0.000000  celldm(6)=   0.000000

     crystal axes: (cart. coord. in units of alat)
               a(1) = (   1.000000   0.000000   0.000000 )  
               a(2) = (   0.000000   1.000000   0.000000 )  
               a(3) = (   0.000000   0.000000   8.485281 )  

     reciprocal axes: (cart. coord. in units 2 pi/alat)
               b(1) = (  1.000000  0.000000  0.000000 )  
               b(2) = (  0.000000  1.000000  0.000000 )  
               b(3) = (  0.000000  0.000000  0.117851 )  


     PseudoPot. # 1 for Si read from file:
     /home/simplogic86/Work/QE/Environ/tests/../..//pseudo/Si.pbe-n-kjpaw_psl.1.0.0.UPF
     MD5 check sum: c39c59da582df4a0d9f10159256ea34e
     Pseudo is Projector augmented-wave + core cor, Zval =  4.0
     Generated using &quot;atomic&quot; code by A. Dal Corso  v.6.3
     Shape of augmentation charge: PSQ
     Using radial grid of 1141 points,  6 beta functions with: 
                l(1) =   0
                l(2) =   0
                l(3) =   1
                l(4) =   1
                l(5) =   2
                l(6) =   2
     Q(r) pseudized with 0 coefficients 


     atomic species   valence    mass     pseudopotential
        Si             4.00    28.08550     Si( 1.00)

      8 Sym. Ops., with inversion, found ( 4 have fractional translation)



   Cartesian axes

     site n.     atom                  positions (alat units)
         1           Si  tau(   1) = (   1.0000000   0.5000000   4.7729703  )
         2           Si  tau(   2) = (   0.5000000   0.5000000   3.7123103  )
         3           Si  tau(   3) = (   0.5000000   1.0000000   4.0658665  )
         4           Si  tau(   4) = (   1.0000000   0.0000000   4.4194142  )

     number of k points=     1  Marzari-Vanderbilt smearing, width (Ry)=  0.0001
                       cart. coord. in units 2pi/alat
        k(    1) = (   0.0000000   0.0000000   0.0000000), wk =   2.0000000

     Dense  grid:    40125 G-vectors     FFT dimensions: (  24,  24, 180)

     Estimated max dynamical RAM per process >     151.26 MB

Environ Warning (1005): wrong integral of erfc function


     Check: negative core charge=   -0.000003

     Initial potential from superposition of free atoms

     starting charge      15.9978, renormalised to      16.0000

     negative rho (up, down):  3.080E-03 0.000E+00
     Starting wfcs are   16 randomized atomic wfcs
     Checking if some PAW data can be deallocated... 

     total cpu time spent up to now is        1.0 secs

     Self-consistent Calculation

     iteration #  1     ecut=    20.00 Ry     beta= 0.70
     Davidson diagonalization with overlap
     ethr =  1.00E-02,  avg # of iterations =  3.0

     negative rho (up, down):  6.165E-03 0.000E+00

     total cpu time spent up to now is        2.2 secs

     total energy              =    -186.07660815 Ry
     estimated scf accuracy    <       0.26721770 Ry
     electrostatic embedding   =       0.00000000 Ry
     electrolyte free energy   =       0.00001123 Ry
     correction to one-el term =       0.00000000 Ry

     iteration #  2     ecut=    20.00 Ry     beta= 0.70
     Davidson diagonalization with overlap
     ethr =  1.67E-03,  avg # of iterations =  1.0

     negative rho (up, down):  1.164E-02 0.000E+00

     add environment contribution to local potential

     total cpu time spent up to now is        3.7 secs

     total energy              =    -186.06261813 Ry
     estimated scf accuracy    <       0.07623033 Ry
     electrostatic embedding   =       0.00000000 Ry
     electrolyte free energy   =       0.00001123 Ry
     correction to one-el term =       0.00000000 Ry

     iteration #  3     ecut=    20.00 Ry     beta= 0.70
     Davidson diagonalization with overlap
     ethr =  4.76E-04,  avg # of iterations =  2.0

     negative rho (up, down):  1.193E-02 0.000E+00

     add environment contribution to local potential

     total cpu time spent up to now is        5.2 secs

     total energy              =    -186.07863193 Ry
     estimated scf accuracy    <       0.00486947 Ry
     electrostatic embedding   =      -0.00176713 Ry
     electrolyte free energy   =      -0.00014346 Ry
     correction to one-el term =       2.28386547 Ry

     iteration #  4     ecut=    20.00 Ry     beta= 0.70
     Davidson diagonalization with overlap
     ethr =  3.04E-05,  avg # of iterations =  9.0

     negative rho (up, down):  1.205E-02 0.000E+00

     add environment contribution to local potential

     total cpu time spent up to now is        6.8 secs

     total energy              =    -186.08064999 Ry
     estimated scf accuracy    <       0.00613701 Ry
     electrostatic embedding   =      -0.00208122 Ry
     electrolyte free energy   =      -0.00015016 Ry
     correction to one-el term =       2.26688037 Ry

     iteration #  5     ecut=    20.00 Ry     beta= 0.70
     Davidson diagonalization with overlap
     ethr =  3.04E-05,  avg # of iterations =  1.0

     negative rho (up, down):  1.410E-02 0.000E+00

     add environment contribution to local potential

     total cpu time spent up to now is        8.4 secs

     total energy              =    -186.07903803 Ry
     estimated scf accuracy    <       0.00546403 Ry
     electrostatic embedding   =      -0.00211948 Ry
     electrolyte free energy   =      -0.00015068 Ry
     correction to one-el term =       2.26982391 Ry

     iteration #  6     ecut=    20.00 Ry     beta= 0.70
     Davidson diagonalization with overlap
     ethr =  3.04E-05,  avg # of iterations =  3.0

     negative rho (up, down):  1.406E-02 0.000E+00

     add environment contribution to local potential

     total cpu time spent up to now is       10.1 secs

     total energy              =    -186.08132284 Ry
     estimated scf accuracy    <       0.00306257 Ry
     electrostatic embedding   =      -0.00318030 Ry
     electrolyte free energy   =      -0.00016356 Ry
     correction to one-el term =       2.27885072 Ry

     iteration #  7     ecut=    20.00 Ry     beta= 0.70
     Davidson diagonalization with overlap
     ethr =  1.91E-05,  avg # of iterations =  1.0

     negative rho (up, down):  1.254E-02 0.000E+00

     add environment contribution to local potential

     total cpu time spent up to now is       12.0 secs

     total energy              =    -186.08015406 Ry
     estimated scf accuracy    <       0.00213517 Ry
     electrostatic embedding   =      -0.00349989 Ry
     electrolyte free energy   =      -0.00016756 Ry
     correction to one-el term =       2.26605931 Ry

     iteration #  8     ecut=    20.00 Ry     beta= 0.70
     Davidson diagonalization with overlap
     ethr =  1.33E-05,  avg # of iterations =  3.0

     negative rho (up, down):  1.236E-02 0.000E+00

     add environment contribution to local potential

     total cpu time spent up to now is       13.9 secs

     total energy              =    -186.08151149 Ry
     estimated scf accuracy    <       0.00334706 Ry
     electrostatic embedding   =      -0.00450786 Ry
     electrolyte free energy   =      -0.00017820 Ry
     correction to one-el term =       2.16659887 Ry

     iteration #  9     ecut=    20.00 Ry     beta= 0.70
     Davidson diagonalization with overlap
     ethr =  1.33E-05,  avg # of iterations =  2.0

     negative rho (up, down):  1.107E-02 0.000E+00

     add environment contribution to local potential

     total cpu time spent up to now is       15.5 secs

     total energy              =    -186.08057477 Ry
     estimated scf accuracy    <       0.00273370 Ry
     electrostatic embedding   =      -0.00549343 Ry
     electrolyte free energy   =      -0.00018791 Ry
     correction to one-el term =       2.10226004 Ry

     iteration # 10     ecut=    20.00 Ry     beta= 0.70
     Davidson diagonalization with overlap
     ethr =  1.33E-05,  avg # of iterations =  2.0

     negative rho (up, down):  9.702E-03 0.000E+00

     add environment contribution to local potential

     total cpu time spent up to now is       17.2 secs

     total energy              =    -186.08112654 Ry
     estimated scf accuracy    <       0.00035448 Ry
     electrostatic embedding   =      -0.00841476 Ry
     electrolyte free energy   =      -0.00020478 Ry
     correction to one-el term =       1.85613543 Ry

     iteration # 11     ecut=    20.00 Ry     beta= 0.70
     Davidson diagonalization with overlap
     ethr =  2.22E-06,  avg # of iterations =  7.0

     negative rho (up, down):  8.290E-03 0.000E+00

     add environment contribution to local potential

     total cpu time spent up to now is       19.0 secs

     total energy              =    -186.08101709 Ry
     estimated scf accuracy    <       0.00142567 Ry
     electrostatic embedding   =      -0.00951891 Ry
     electrolyte free energy   =      -0.00020355 Ry
     correction to one-el term =       1.71809719 Ry

     iteration # 12     ecut=    20.00 Ry     beta= 0.70
     Davidson diagonalization with overlap
     ethr =  2.22E-06,  avg # of iterations =  3.0

     negative rho (up, down):  5.033E-03 0.000E+00

     add environment contribution to local potential

     total cpu time spent up to now is       20.9 secs

     total energy              =    -186.08141546 Ry
     estimated scf accuracy    <       0.00026695 Ry
     electrostatic embedding   =      -0.01111996 Ry
     electrolyte free energy   =      -0.00020872 Ry
     correction to one-el term =       1.54692770 Ry

     iteration # 13     ecut=    20.00 Ry     beta= 0.70
     Davidson diagonalization with overlap
     ethr =  1.67E-06,  avg # of iterations =  6.0

     negative rho (up, down):  4.929E-03 0.000E+00

     add environment contribution to local potential

     total cpu time spent up to now is       22.8 secs

     total energy              =    -186.08056338 Ry
     estimated scf accuracy    <       0.00374076 Ry
     electrostatic embedding   =      -0.01626021 Ry
     electrolyte free energy   =      -0.00022417 Ry
     correction to one-el term =       1.05612823 Ry

     iteration # 14     ecut=    20.00 Ry     beta= 0.70
     Davidson diagonalization with overlap
     ethr =  1.67E-06,  avg # of iterations =  3.0

     negative rho (up, down):  5.695E-03 0.000E+00

     add environment contribution to local potential

     total cpu time spent up to now is       24.8 secs

     total energy              =    -186.08119662 Ry
     estimated scf accuracy    <       0.00198159 Ry
     electrostatic embedding   =      -0.01909478 Ry
     electrolyte free energy   =      -0.00024670 Ry
     correction to one-el term =       0.87237529 Ry

     iteration # 15     ecut=    20.00 Ry     beta= 0.70
     Davidson diagonalization with overlap
     ethr =  1.67E-06,  avg # of iterations =  3.0

     negative rho (up, down):  4.218E-03 0.000E+00

     add environment contribution to local potential

     total cpu time spent up to now is       26.7 secs

     total energy              =    -186.08083861 Ry
     estimated scf accuracy    <       0.00303873 Ry
     electrostatic embedding   =      -0.01761591 Ry
     electrolyte free energy   =      -0.00024262 Ry
     correction to one-el term =       0.94828640 Ry

     iteration # 16     ecut=    20.00 Ry     beta= 0.70
     Davidson diagonalization with overlap
     ethr =  1.67E-06,  avg # of iterations =  5.0

     negative rho (up, down):  3.780E-03 0.000E+00

     add environment contribution to local potential

     total cpu time spent up to now is       28.6 secs

     total energy              =    -186.08048076 Ry
     estimated scf accuracy    <       0.00017795 Ry
     electrostatic embedding   =      -0.01941548 Ry
     electrolyte free energy   =      -0.00023988 Ry
     correction to one-el term =       0.85614273 Ry

     iteration # 17     ecut=    20.00 Ry     beta= 0.70
     Davidson diagonalization with overlap
     ethr =  1.11E-06,  avg # of iterations =  2.0

     negative rho (up, down):  3.511E-03 0.000E+00

     add environment contribution to local potential

     total cpu time spent up to now is       30.7 secs

     total energy              =    -186.08047235 Ry
     estimated scf accuracy    <       0.00019658 Ry
     electrostatic embedding   =      -0.01834760 Ry
     electrolyte free energy   =      -0.00023198 Ry
     correction to one-el term =       0.91371817 Ry

     iteration # 18     ecut=    20.00 Ry     beta= 0.70
     Davidson diagonalization with overlap
     ethr =  1.11E-06,  avg # of iterations =  5.0

     negative rho (up, down):  3.490E-03 0.000E+00

     add environment contribution to local potential

     total cpu time spent up to now is       33.1 secs

     total energy              =    -186.08095640 Ry
     estimated scf accuracy    <       0.00005699 Ry
     electrostatic embedding   =      -0.01633542 Ry
     electrolyte free energy   =      -0.00020981 Ry
     correction to one-el term =       1.06070592 Ry

     iteration # 19     ecut=    20.00 Ry     beta= 0.70
     Davidson diagonalization with overlap
     ethr =  3.56E-07,  avg # of iterations =  2.0

     negative rho (up, down):  3.458E-03 0.000E+00

     add environment contribution to local potential

     total cpu time spent up to now is       34.8 secs

     total energy              =    -186.08085207 Ry
     estimated scf accuracy    <       0.00004696 Ry
     electrostatic embedding   =      -0.01667536 Ry
     electrolyte free energy   =      -0.00021362 Ry
     correction to one-el term =       1.03524412 Ry

     iteration # 20     ecut=    20.00 Ry     beta= 0.70
     Davidson diagonalization with overlap
     ethr =  2.94E-07,  avg # of iterations =  2.0

     negative rho (up, down):  3.285E-03 0.000E+00

     add environment contribution to local potential

     total cpu time spent up to now is       36.5 secs

     total energy              =    -186.08075361 Ry
     estimated scf accuracy    <       0.00001324 Ry
     electrostatic embedding   =      -0.01692038 Ry
     electrolyte free energy   =      -0.00021714 Ry
     correction to one-el term =       1.01052200 Ry

     iteration # 21     ecut=    20.00 Ry     beta= 0.70
     Davidson diagonalization with overlap
     ethr =  8.28E-08,  avg # of iterations =  5.0

     negative rho (up, down):  3.299E-03 0.000E+00

     add environment contribution to local potential

     total cpu time spent up to now is       38.2 secs

     total energy              =    -186.08091074 Ry
     estimated scf accuracy    <       0.00009352 Ry
     electrostatic embedding   =      -0.01560847 Ry
     electrolyte free energy   =      -0.00020938 Ry
     correction to one-el term =       1.07304595 Ry

     iteration # 22     ecut=    20.00 Ry     beta= 0.70
     Davidson diagonalization with overlap
     ethr =  8.28E-08,  avg # of iterations =  4.0

     negative rho (up, down):  3.308E-03 0.000E+00

     add environment contribution to local potential

     total cpu time spent up to now is       39.8 secs

     total energy              =    -186.08094927 Ry
     estimated scf accuracy    <       0.00002041 Ry
     electrostatic embedding   =      -0.01530386 Ry
     electrolyte free energy   =      -0.00020711 Ry
     correction to one-el term =       1.09857485 Ry

     iteration # 23     ecut=    20.00 Ry     beta= 0.70
     Davidson diagonalization with overlap
     ethr =  8.28E-08,  avg # of iterations =  3.0

     negative rho (up, down):  3.307E-03 0.000E+00

     add environment contribution to local potential

     total cpu time spent up to now is       41.4 secs

     total energy              =    -186.08098936 Ry
     estimated scf accuracy    <       0.00000057 Ry
     electrostatic embedding   =      -0.01503061 Ry
     electrolyte free energy   =      -0.00020524 Ry
     correction to one-el term =       1.11834095 Ry

     iteration # 24     ecut=    20.00 Ry     beta= 0.70
     Davidson diagonalization with overlap
     ethr =  3.57E-09,  avg # of iterations =  4.0

     negative rho (up, down):  3.307E-03 0.000E+00

     add environment contribution to local potential

     total cpu time spent up to now is       43.5 secs

     total energy              =    -186.08098250 Ry
     estimated scf accuracy    <       0.00000031 Ry
     electrostatic embedding   =      -0.01511642 Ry
     electrolyte free energy   =      -0.00020568 Ry
     correction to one-el term =       1.11229282 Ry

     iteration # 25     ecut=    20.00 Ry     beta= 0.70
     Davidson diagonalization with overlap
     ethr =  1.93E-09,  avg # of iterations =  4.0

     negative rho (up, down):  3.299E-03 0.000E+00

     add environment contribution to local potential

     total cpu time spent up to now is       45.9 secs

     total energy              =    -186.08099318 Ry
     estimated scf accuracy    <       0.00000002 Ry
     electrostatic embedding   =      -0.01505975 Ry
     electrolyte free energy   =      -0.00020516 Ry
     correction to one-el term =       1.11680086 Ry

     iteration # 26     ecut=    20.00 Ry     beta= 0.70
     Davidson diagonalization with overlap
     ethr =  1.33E-10,  avg # of iterations =  5.0

     negative rho (up, down):  3.298E-03 0.000E+00

     add environment contribution to local potential

     total cpu time spent up to now is       48.1 secs

     total energy              =    -186.08099768 Ry
     estimated scf accuracy    <       0.00000001 Ry
     electrostatic embedding   =      -0.01500735 Ry
     electrolyte free energy   =      -0.00020491 Ry
     correction to one-el term =       1.11947312 Ry

     iteration # 27     ecut=    20.00 Ry     beta= 0.70
     Davidson diagonalization with overlap
     ethr =  7.33E-11,  avg # of iterations =  2.0

     negative rho (up, down):  3.301E-03 0.000E+00

     the potential shift due to the Gaussian-smeared nuclei is    -0.1033 ev

     total cpu time spent up to now is       49.1 secs

     End of self-consistent calculation

          k = 0.0000 0.0000 0.0000 (  5049 PWs)   bands (ev):

   -16.7578 -14.5187 -11.2755  -7.8612  -7.8218  -7.3779  -6.4271  -5.3084
    -4.7042  -4.1438  -3.9876  -2.9235

     the Fermi energy is    -5.0758 ev

!    total energy              =    -186.08099879 Ry

     total all-electron energy =     -2319.464459 Ry
     estimated scf accuracy    <          4.4E-09 Ry
     smearing contrib. (-TS)   =       0.00000000 Ry
     internal energy E=F+TS    =    -186.08099879 Ry

     The total energy is F=E-TS. E is the sum of the following terms:
     one-electron contribution =    -416.40602226 Ry
     hartree contribution      =     209.53630198 Ry
     xc contribution           =     -24.25467457 Ry
     ewald contribution        =     186.30364135 Ry
     one-center paw contrib.   =    -142.36470006 Ry
     electrostatic embedding   =      -0.01500391 Ry
     electrolyte free energy   =      -0.00020487 Ry
     correction to one-el term =       1.11966354 Ry

     WARNING: you are using the parabolic pbc correction;
              the potential shift above must be added to 
              band and Fermi energies.

     convergence has been achieved in  27 iterations

     negative rho (up, down):  3.301E-03 0.000E+00


***************************************************

     Flatband potential calculated as    -5.07577745

     Now using initial charge of:      0.00350000

***************************************************
     charge density from previous step

     Check: negative core charge=   -0.000003

     negative rho (up, down):  3.301E-03 0.000E+00
     extrapolated charge   16.00000, renormalised to   15.99650

Environ Warning (1005): wrong integral of erfc function


     add environment contribution to local potential

     Forces acting on atoms (cartesian axes, Ry/au):

     atom    1 type  1   force =     0.00000000    0.00000000    0.01073165
     atom    2 type  1   force =     0.00000000    0.00000000   -0.01073165
     atom    3 type  1   force =     0.00000000    0.00000000    0.00124908
     atom    4 type  1   force =     0.00000000    0.00000000   -0.00124908

     Total force =     0.015279     Total SCF correction =     0.000096

     total cpu time spent up to now is       50.9 secs

     Self-consistent Calculation

     iteration #  1     ecut=    20.00 Ry     beta= 0.70
     Davidson diagonalization with overlap
     ethr =  1.00E-06,  avg # of iterations =  1.0

     Threshold (ethr) on eigenvalues was too large:
     Diagonalizing with lowered threshold

     Davidson diagonalization with overlap
     ethr =  5.72E-08,  avg # of iterations =  1.0

     negative rho (up, down):  3.394E-03 0.000E+00

     add environment contribution to local potential

     total cpu time spent up to now is       52.6 secs

     total energy              =    -186.07443037 Ry
     estimated scf accuracy    <       0.00000900 Ry
     electrostatic embedding   =      -0.00577439 Ry
     electrolyte free energy   =      -0.00260575 Ry
     correction to one-el term =       1.11705335 Ry

     iteration #  2     ecut=    20.00 Ry     beta= 0.70
     Davidson diagonalization with overlap
     ethr =  5.63E-08,  avg # of iterations =  3.0

     negative rho (up, down):  3.388E-03 0.000E+00

     add environment contribution to local potential

     total cpu time spent up to now is       54.1 secs

     total energy              =    -186.07442407 Ry
     estimated scf accuracy    <       0.00004140 Ry
     electrostatic embedding   =      -0.00585631 Ry
     electrolyte free energy   =      -0.00260572 Ry
     correction to one-el term =       1.11325894 Ry

     iteration #  3     ecut=    20.00 Ry     beta= 0.70
     Davidson diagonalization with overlap
     ethr =  5.63E-08,  avg # of iterations =  1.0

     negative rho (up, down):  3.370E-03 0.000E+00

     add environment contribution to local potential

     total cpu time spent up to now is       55.8 secs

     total energy              =    -186.07443008 Ry
     estimated scf accuracy    <       0.00005012 Ry
     electrostatic embedding   =      -0.00585234 Ry
     electrolyte free energy   =      -0.00260572 Ry
     correction to one-el term =       1.11404645 Ry

     iteration #  4     ecut=    20.00 Ry     beta= 0.70
     Davidson diagonalization with overlap
     ethr =  5.63E-08,  avg # of iterations =  1.0

     negative rho (up, down):  3.513E-03 0.000E+00

     add environment contribution to local potential

     total cpu time spent up to now is       57.3 secs

     total energy              =    -186.07442048 Ry
     estimated scf accuracy    <       0.00006557 Ry
     electrostatic embedding   =      -0.00584994 Ry
     electrolyte free energy   =      -0.00260575 Ry
     correction to one-el term =       1.11488703 Ry

     iteration #  5     ecut=    20.00 Ry     beta= 0.70
     Davidson diagonalization with overlap
     ethr =  5.63E-08,  avg # of iterations =  4.0

     negative rho (up, down):  3.862E-03 0.000E+00

     add environment contribution to local potential

     total cpu time spent up to now is       59.0 secs

     total energy              =    -186.07437547 Ry
     estimated scf accuracy    <       0.00000798 Ry
     electrostatic embedding   =      -0.00595811 Ry
     electrolyte free energy   =      -0.00260555 Ry
     correction to one-el term =       1.10448892 Ry

     iteration #  6     ecut=    20.00 Ry     beta= 0.70
     Davidson diagonalization with overlap
     ethr =  4.99E-08,  avg # of iterations =  4.0

     negative rho (up, down):  4.158E-03 0.000E+00

     add environment contribution to local potential

     total cpu time spent up to now is       60.7 secs

     total energy              =    -186.07433108 Ry
     estimated scf accuracy    <       0.00005315 Ry
     electrostatic embedding   =      -0.00603723 Ry
     electrolyte free energy   =      -0.00260521 Ry
     correction to one-el term =       1.10471542 Ry

     iteration #  7     ecut=    20.00 Ry     beta= 0.70
     Davidson diagonalization with overlap
     ethr =  4.99E-08,  avg # of iterations =  3.0

     negative rho (up, down):  4.251E-03 0.000E+00

     add environment contribution to local potential

     total cpu time spent up to now is       62.3 secs

     total energy              =    -186.07429295 Ry
     estimated scf accuracy    <       0.00010147 Ry
     electrostatic embedding   =      -0.00618140 Ry
     electrolyte free energy   =      -0.00260496 Ry
     correction to one-el term =       1.10160508 Ry

     iteration #  8     ecut=    20.00 Ry     beta= 0.70
     Davidson diagonalization with overlap
     ethr =  4.99E-08,  avg # of iterations =  4.0

     negative rho (up, down):  4.364E-03 0.000E+00

     add environment contribution to local potential

     total cpu time spent up to now is       64.4 secs

     total energy              =    -186.07434313 Ry
     estimated scf accuracy    <       0.00000576 Ry
     electrostatic embedding   =      -0.00610325 Ry
     electrolyte free energy   =      -0.00260494 Ry
     correction to one-el term =       1.12138535 Ry

     iteration #  9     ecut=    20.00 Ry     beta= 0.70
     Davidson diagonalization with overlap
     ethr =  3.60E-08,  avg # of iterations =  3.0

     negative rho (up, down):  4.367E-03 0.000E+00

     add environment contribution to local potential

     total cpu time spent up to now is       65.9 secs

     total energy              =    -186.07435745 Ry
     estimated scf accuracy    <       0.00000161 Ry
     electrostatic embedding   =      -0.00595705 Ry
     electrolyte free energy   =      -0.00260477 Ry
     correction to one-el term =       1.14338305 Ry

     iteration # 10     ecut=    20.00 Ry     beta= 0.70
     Davidson diagonalization with overlap
     ethr =  1.01E-08,  avg # of iterations =  5.0

     negative rho (up, down):  4.433E-03 0.000E+00

     add environment contribution to local potential

     total cpu time spent up to now is       67.7 secs

     total energy              =    -186.07437196 Ry
     estimated scf accuracy    <       0.00000773 Ry
     electrostatic embedding   =      -0.00591115 Ry
     electrolyte free energy   =      -0.00260466 Ry
     correction to one-el term =       1.14896322 Ry

     iteration # 11     ecut=    20.00 Ry     beta= 0.70
     Davidson diagonalization with overlap
     ethr =  1.01E-08,  avg # of iterations =  4.0

     negative rho (up, down):  4.438E-03 0.000E+00

     add environment contribution to local potential

     total cpu time spent up to now is       69.1 secs

     total energy              =    -186.07436483 Ry
     estimated scf accuracy    <       0.00000012 Ry
     electrostatic embedding   =      -0.00593711 Ry
     electrolyte free energy   =      -0.00260446 Ry
     correction to one-el term =       1.14510534 Ry

     iteration # 12     ecut=    20.00 Ry     beta= 0.70
     Davidson diagonalization with overlap
     ethr =  7.19E-10,  avg # of iterations =  5.0

     negative rho (up, down):  4.435E-03 0.000E+00

     add environment contribution to local potential

     total cpu time spent up to now is       70.7 secs

     total energy              =    -186.07437045 Ry
     estimated scf accuracy    <       0.00000002 Ry
     electrostatic embedding   =      -0.00589232 Ry
     electrolyte free energy   =      -0.00260438 Ry
     correction to one-el term =       1.14891029 Ry

     iteration # 13     ecut=    20.00 Ry     beta= 0.70
     Davidson diagonalization with overlap
     ethr =  1.25E-10,  avg # of iterations =  6.0

     negative rho (up, down):  4.435E-03 0.000E+00

     add environment contribution to local potential

     total cpu time spent up to now is       72.2 secs

     total energy              =    -186.07437354 Ry
     estimated scf accuracy    <       0.00000016 Ry
     electrostatic embedding   =      -0.00586478 Ry
     electrolyte free energy   =      -0.00260436 Ry
     correction to one-el term =       1.15118521 Ry

     iteration # 14     ecut=    20.00 Ry     beta= 0.70
     Davidson diagonalization with overlap
     ethr =  1.25E-10,  avg # of iterations =  3.0

     negative rho (up, down):  4.434E-03 0.000E+00

     add environment contribution to local potential

     total cpu time spent up to now is       73.5 secs

     total energy              =    -186.07437539 Ry
     estimated scf accuracy    <       0.00000017 Ry
     electrostatic embedding   =      -0.00584548 Ry
     electrolyte free energy   =      -0.00260433 Ry
     correction to one-el term =       1.15240489 Ry

     iteration # 15     ecut=    20.00 Ry     beta= 0.70
     Davidson diagonalization with overlap
     ethr =  1.25E-10,  avg # of iterations =  1.0

     negative rho (up, down):  4.432E-03 0.000E+00

     add environment contribution to local potential

     total cpu time spent up to now is       75.1 secs

     total energy              =    -186.07437557 Ry
     estimated scf accuracy    <       0.00000018 Ry
     electrostatic embedding   =      -0.00584511 Ry
     electrolyte free energy   =      -0.00260433 Ry
     correction to one-el term =       1.15241590 Ry

     iteration # 16     ecut=    20.00 Ry     beta= 0.70
     Davidson diagonalization with overlap
     ethr =  1.25E-10,  avg # of iterations =  3.0

     negative rho (up, down):  4.432E-03 0.000E+00

     add environment contribution to local potential

     total cpu time spent up to now is       76.8 secs

     total energy              =    -186.07437455 Ry
     estimated scf accuracy    <       0.00000007 Ry
     electrostatic embedding   =      -0.00582782 Ry
     electrolyte free energy   =      -0.00260432 Ry
     correction to one-el term =       1.15312423 Ry

     iteration # 17     ecut=    20.00 Ry     beta= 0.70
     Davidson diagonalization with overlap
     ethr =  1.25E-10,  avg # of iterations =  3.0

     negative rho (up, down):  4.436E-03 0.000E+00

     add environment contribution to local potential

     total cpu time spent up to now is       79.0 secs

     total energy              =    -186.07437280 Ry
     estimated scf accuracy    <       0.00000003 Ry
     electrostatic embedding   =      -0.00581117 Ry
     electrolyte free energy   =      -0.00260432 Ry
     correction to one-el term =       1.15389756 Ry

     iteration # 18     ecut=    20.00 Ry     beta= 0.70
     Davidson diagonalization with overlap
     ethr =  1.25E-10,  avg # of iterations =  2.0

     negative rho (up, down):  4.438E-03 0.000E+00

     add environment contribution to local potential

     total cpu time spent up to now is       80.3 secs

     total energy              =    -186.07437313 Ry
     estimated scf accuracy    <       0.00000003 Ry
     electrostatic embedding   =      -0.00580240 Ry
     electrolyte free energy   =      -0.00260433 Ry
     correction to one-el term =       1.15467543 Ry

     iteration # 19     ecut=    20.00 Ry     beta= 0.70
     Davidson diagonalization with overlap
     ethr =  1.25E-10,  avg # of iterations =  2.0

     negative rho (up, down):  4.437E-03 0.000E+00

     add environment contribution to local potential

     total cpu time spent up to now is       81.6 secs

     total energy              =    -186.07437340 Ry
     estimated scf accuracy    <       0.00000005 Ry
     electrostatic embedding   =      -0.00579827 Ry
     electrolyte free energy   =      -0.00260433 Ry
     correction to one-el term =       1.15502631 Ry

     iteration # 20     ecut=    20.00 Ry     beta= 0.70
     Davidson diagonalization with overlap
     ethr =  1.25E-10,  avg # of iterations =  1.0

     negative rho (up, down):  4.437E-03 0.000E+00

     add environment contribution to local potential

     total cpu time spent up to now is       82.9 secs

     total energy              =    -186.07437342 Ry
     estimated scf accuracy    <       0.00000006 Ry
     electrostatic embedding   =      -0.00580042 Ry
     electrolyte free energy   =      -0.00260434 Ry
     correction to one-el term =       1.15486652 Ry

     iteration # 21     ecut=    20.00 Ry     beta= 0.70
     Davidson diagonalization with overlap
     ethr =  1.25E-10,  avg # of iterations =  1.0

     negative rho (up, down):  4.440E-03 0.000E+00

     add environment contribution to local potential

     total cpu time spent up to now is       84.5 secs

     total energy              =    -186.07437351 Ry
     estimated scf accuracy    <       0.00000006 Ry
     electrostatic embedding   =      -0.00580028 Ry
     electrolyte free energy   =      -0.00260434 Ry
     correction to one-el term =       1.15489180 Ry

     iteration # 22     ecut=    20.00 Ry     beta= 0.70
     Davidson diagonalization with overlap
     ethr =  1.25E-10,  avg # of iterations =  2.0

     negative rho (up, down):  4.434E-03 0.000E+00

     add environment contribution to local potential

     total cpu time spent up to now is       86.1 secs

     total energy              =    -186.07437433 Ry
     estimated scf accuracy    <       0.00000006 Ry
     electrostatic embedding   =      -0.00581699 Ry
     electrolyte free energy   =      -0.00260433 Ry
     correction to one-el term =       1.15409049 Ry

     iteration # 23     ecut=    20.00 Ry     beta= 0.70
     Davidson diagonalization with overlap
     ethr =  1.25E-10,  avg # of iterations =  1.0

     negative rho (up, down):  4.433E-03 0.000E+00

     add environment contribution to local potential

     total cpu time spent up to now is       87.7 secs

     total energy              =    -186.07437435 Ry
     estimated scf accuracy    <       0.00000007 Ry
     electrostatic embedding   =      -0.00581396 Ry
     electrolyte free energy   =      -0.00260433 Ry
     correction to one-el term =       1.15404491 Ry

     iteration # 24     ecut=    20.00 Ry     beta= 0.70
     Davidson diagonalization with overlap
     ethr =  1.25E-10,  avg # of iterations =  3.0

     negative rho (up, down):  4.434E-03 0.000E+00

     add environment contribution to local potential

     total cpu time spent up to now is       89.2 secs

     total energy              =    -186.07437723 Ry
     estimated scf accuracy    <       0.00000004 Ry
     electrostatic embedding   =      -0.00580355 Ry
     electrolyte free energy   =      -0.00260431 Ry
     correction to one-el term =       1.15481839 Ry

     iteration # 25     ecut=    20.00 Ry     beta= 0.70
     Davidson diagonalization with overlap
     ethr =  1.25E-10,  avg # of iterations =  5.0

     negative rho (up, down):  4.435E-03 0.000E+00

     add environment contribution to local potential

     total cpu time spent up to now is       91.2 secs

     total energy              =    -186.07437353 Ry
     estimated scf accuracy    <       0.00000029 Ry
     electrostatic embedding   =      -0.00584641 Ry
     electrolyte free energy   =      -0.00260432 Ry
     correction to one-el term =       1.15221158 Ry

     iteration # 26     ecut=    20.00 Ry     beta= 0.70
     Davidson diagonalization with overlap
     ethr =  1.25E-10,  avg # of iterations =  5.0

     negative rho (up, down):  4.434E-03 0.000E+00

     add environment contribution to local potential

     total cpu time spent up to now is       92.9 secs

     total energy              =    -186.07437926 Ry
     estimated scf accuracy    <       0.00000013 Ry
     electrostatic embedding   =      -0.00579544 Ry
     electrolyte free energy   =      -0.00260433 Ry
     correction to one-el term =       1.15544262 Ry

     iteration # 27     ecut=    20.00 Ry     beta= 0.70
     Davidson diagonalization with overlap
     ethr =  1.25E-10,  avg # of iterations =  5.0

     negative rho (up, down):  3.302E-03 0.000E+00

     the potential shift due to the Gaussian-smeared nuclei is    -0.1033 ev

     total cpu time spent up to now is       93.9 secs

     End of self-consistent calculation

          k = 0.0000 0.0000 0.0000 (  5049 PWs)   bands (ev):

   -16.7939 -14.5547 -11.3119  -7.8978  -7.8580  -7.4148  -6.4636  -5.3451
    -4.7401  -4.1775  -4.0238  -2.9599

     the Fermi energy is    -5.3354 ev

     WARNING: integrated charge=    16.00000000, expected=    15.99650000

!    total energy              =    -186.07438362 Ry

     total all-electron energy =     -2319.457844 Ry
     estimated scf accuracy    <          4.8E-09 Ry
     smearing contrib. (-TS)   =       0.00000000 Ry
     internal energy E=F+TS    =    -186.07438362 Ry

     The total energy is F=E-TS. E is the sum of the following terms:
     one-electron contribution =    -416.43989349 Ry
     hartree contribution      =     209.53210427 Ry
     xc contribution           =     -24.25513229 Ry
     ewald contribution        =     186.30364135 Ry
     one-center paw contrib.   =    -142.36478133 Ry
     electrostatic embedding   =      -0.00575144 Ry
     electrolyte free energy   =      -0.00260432 Ry
     correction to one-el term =       1.15803363 Ry

     WARNING: you are using the parabolic pbc correction;
              the potential shift above must be added to 
              band and Fermi energies.

     convergence has been achieved in  27 iterations

     negative rho (up, down):  3.302E-03 0.000E+00


***************************************************

     Finished Charge convergence step :   1

     DFT Fermi level calculated as    -5.33537077

     Charge trapped in surface states:     0.00350000 e

     Charge Accuracy <     0.00105000

     Difference between bulk and DFT fermi:    -0.05173595

     Now using DFT charge of:      0.00455000

***************************************************
     charge density from previous step

     Check: negative core charge=   -0.000003

     negative rho (up, down):  3.302E-03 0.000E+00
     extrapolated charge   16.00000, renormalised to   15.99545

Environ Warning (1005): wrong integral of erfc function


     add environment contribution to local potential

     Forces acting on atoms (cartesian axes, Ry/au):

     atom    1 type  1   force =     0.00000000    0.00000000    0.01077297
     atom    2 type  1   force =     0.00000000    0.00000000   -0.01077297
     atom    3 type  1   force =     0.00000000    0.00000000    0.00124664
     atom    4 type  1   force =     0.00000000    0.00000000   -0.00124664

     Total force =     0.015337     Total SCF correction =     0.000116

     total cpu time spent up to now is       95.7 secs

     Self-consistent Calculation

     iteration #  1     ecut=    20.00 Ry     beta= 0.70
     Davidson diagonalization with overlap
     ethr =  1.00E-06,  avg # of iterations =  1.0

     Threshold (ethr) on eigenvalues was too large:
     Diagonalizing with lowered threshold

     Davidson diagonalization with overlap
     ethr =  8.53E-08,  avg # of iterations =  2.0

     negative rho (up, down):  3.434E-03 0.000E+00

     add environment contribution to local potential

     total cpu time spent up to now is       97.5 secs

     total energy              =    -186.07564795 Ry
     estimated scf accuracy    <       0.00001294 Ry
     electrostatic embedding   =      -0.00757861 Ry
     electrolyte free energy   =      -0.00221523 Ry
     correction to one-el term =       1.08471736 Ry

     iteration #  2     ecut=    20.00 Ry     beta= 0.70
     Davidson diagonalization with overlap
     ethr =  8.09E-08,  avg # of iterations =  4.0

     negative rho (up, down):  3.429E-03 0.000E+00

     add environment contribution to local potential

     total cpu time spent up to now is       98.9 secs

     total energy              =    -186.07564554 Ry
     estimated scf accuracy    <       0.00006656 Ry
     electrostatic embedding   =      -0.00767418 Ry
     electrolyte free energy   =      -0.00221507 Ry
     correction to one-el term =       1.08143316 Ry

     iteration #  3     ecut=    20.00 Ry     beta= 0.70
     Davidson diagonalization with overlap
     ethr =  8.09E-08,  avg # of iterations =  1.0

     negative rho (up, down):  3.407E-03 0.000E+00

     add environment contribution to local potential

     total cpu time spent up to now is      100.3 secs

     total energy              =    -186.07565087 Ry
     estimated scf accuracy    <       0.00007440 Ry
     electrostatic embedding   =      -0.00767394 Ry
     electrolyte free energy   =      -0.00221507 Ry
     correction to one-el term =       1.08175968 Ry

     iteration #  4     ecut=    20.00 Ry     beta= 0.70
     Davidson diagonalization with overlap
     ethr =  8.09E-08,  avg # of iterations =  1.0

     negative rho (up, down):  3.582E-03 0.000E+00

     add environment contribution to local potential

     total cpu time spent up to now is      102.0 secs

     total energy              =    -186.07563783 Ry
     estimated scf accuracy    <       0.00009421 Ry
     electrostatic embedding   =      -0.00767069 Ry
     electrolyte free energy   =      -0.00221510 Ry
     correction to one-el term =       1.08259608 Ry

     iteration #  5     ecut=    20.00 Ry     beta= 0.70
     Davidson diagonalization with overlap
     ethr =  8.09E-08,  avg # of iterations =  3.0

     negative rho (up, down):  4.195E-03 0.000E+00

     add environment contribution to local potential

     total cpu time spent up to now is      103.8 secs

     total energy              =    -186.07557889 Ry
     estimated scf accuracy    <       0.00002366 Ry
     electrostatic embedding   =      -0.00771385 Ry
     electrolyte free energy   =      -0.00221481 Ry
     correction to one-el term =       1.07846792 Ry

     iteration #  6     ecut=    20.00 Ry     beta= 0.70
     Davidson diagonalization with overlap
     ethr =  8.09E-08,  avg # of iterations =  4.0

     negative rho (up, down):  4.370E-03 0.000E+00

     add environment contribution to local potential

     total cpu time spent up to now is      106.0 secs

     total energy              =    -186.07554288 Ry
     estimated scf accuracy    <       0.00013162 Ry
     electrostatic embedding   =      -0.00774366 Ry
     electrolyte free energy   =      -0.00221375 Ry
     correction to one-el term =       1.08574018 Ry

     iteration #  7     ecut=    20.00 Ry     beta= 0.70
     Davidson diagonalization with overlap
     ethr =  8.09E-08,  avg # of iterations =  1.0

     negative rho (up, down):  4.649E-03 0.000E+00

     add environment contribution to local potential

     total cpu time spent up to now is      107.9 secs

     total energy              =    -186.07551562 Ry
     estimated scf accuracy    <       0.00013062 Ry
     electrostatic embedding   =      -0.00774540 Ry
     electrolyte free energy   =      -0.00221348 Ry
     correction to one-el term =       1.09234770 Ry

     iteration #  8     ecut=    20.00 Ry     beta= 0.70
     Davidson diagonalization with overlap
     ethr =  8.09E-08,  avg # of iterations =  3.0

     negative rho (up, down):  4.627E-03 0.000E+00

     add environment contribution to local potential

     total cpu time spent up to now is      109.8 secs

     total energy              =    -186.07557068 Ry
     estimated scf accuracy    <       0.00000754 Ry
     electrostatic embedding   =      -0.00767301 Ry
     electrolyte free energy   =      -0.00221314 Ry
     correction to one-el term =       1.11685983 Ry

     iteration #  9     ecut=    20.00 Ry     beta= 0.70
     Davidson diagonalization with overlap
     ethr =  4.71E-08,  avg # of iterations =  3.0

     negative rho (up, down):  4.753E-03 0.000E+00

     add environment contribution to local potential

     total cpu time spent up to now is      111.4 secs

     total energy              =    -186.07559659 Ry
     estimated scf accuracy    <       0.00001424 Ry
     electrostatic embedding   =      -0.00756027 Ry
     electrolyte free energy   =      -0.00221303 Ry
     correction to one-el term =       1.13330298 Ry

     iteration # 10     ecut=    20.00 Ry     beta= 0.70
     Davidson diagonalization with overlap
     ethr =  4.71E-08,  avg # of iterations =  2.0

     negative rho (up, down):  4.834E-03 0.000E+00

     add environment contribution to local potential

     total cpu time spent up to now is      113.2 secs

     total energy              =    -186.07559821 Ry
     estimated scf accuracy    <       0.00000527 Ry
     electrostatic embedding   =      -0.00752712 Ry
     electrolyte free energy   =      -0.00221266 Ry
     correction to one-el term =       1.13939476 Ry

     iteration # 11     ecut=    20.00 Ry     beta= 0.70
     Davidson diagonalization with overlap
     ethr =  3.29E-08,  avg # of iterations =  4.0

     negative rho (up, down):  4.831E-03 0.000E+00

     add environment contribution to local potential

     total cpu time spent up to now is      114.9 secs

     total energy              =    -186.07560914 Ry
     estimated scf accuracy    <       0.00000125 Ry
     electrostatic embedding   =      -0.00745673 Ry
     electrolyte free energy   =      -0.00221229 Ry
     correction to one-el term =       1.14501370 Ry

     iteration # 12     ecut=    20.00 Ry     beta= 0.70
     Davidson diagonalization with overlap
     ethr =  7.83E-09,  avg # of iterations =  1.0

     negative rho (up, down):  4.821E-03 0.000E+00

     add environment contribution to local potential

     total cpu time spent up to now is      116.4 secs

     total energy              =    -186.07560868 Ry
     estimated scf accuracy    <       0.00000138 Ry
     electrostatic embedding   =      -0.00744834 Ry
     electrolyte free energy   =      -0.00221227 Ry
     correction to one-el term =       1.14546642 Ry

     iteration # 13     ecut=    20.00 Ry     beta= 0.70
     Davidson diagonalization with overlap
     ethr =  7.83E-09,  avg # of iterations =  2.0

     negative rho (up, down):  4.817E-03 0.000E+00

     add environment contribution to local potential

     total cpu time spent up to now is      118.1 secs

     total energy              =    -186.07561244 Ry
     estimated scf accuracy    <       0.00000004 Ry
     electrostatic embedding   =      -0.00741794 Ry
     electrolyte free energy   =      -0.00221219 Ry
     correction to one-el term =       1.14788212 Ry

     iteration # 14     ecut=    20.00 Ry     beta= 0.70
     Davidson diagonalization with overlap
     ethr =  2.20E-10,  avg # of iterations =  6.0

     negative rho (up, down):  4.816E-03 0.000E+00

     add environment contribution to local potential

     total cpu time spent up to now is      120.4 secs

     total energy              =    -186.07561468 Ry
     estimated scf accuracy    <       0.00000016 Ry
     electrostatic embedding   =      -0.00740028 Ry
     electrolyte free energy   =      -0.00221217 Ry
     correction to one-el term =       1.14904114 Ry

     iteration # 15     ecut=    20.00 Ry     beta= 0.70
     Davidson diagonalization with overlap
     ethr =  2.20E-10,  avg # of iterations =  1.0

     negative rho (up, down):  4.810E-03 0.000E+00

     add environment contribution to local potential

     total cpu time spent up to now is      123.3 secs

     total energy              =    -186.07561496 Ry
     estimated scf accuracy    <       0.00000016 Ry
     electrostatic embedding   =      -0.00739415 Ry
     electrolyte free energy   =      -0.00221216 Ry
     correction to one-el term =       1.14939238 Ry

     iteration # 16     ecut=    20.00 Ry     beta= 0.70
     Davidson diagonalization with overlap
     ethr =  2.20E-10,  avg # of iterations =  3.0

     negative rho (up, down):  4.808E-03 0.000E+00

     add environment contribution to local potential

     total cpu time spent up to now is      125.6 secs

     total energy              =    -186.07561820 Ry
     estimated scf accuracy    <       0.00000011 Ry
     electrostatic embedding   =      -0.00736260 Ry
     electrolyte free energy   =      -0.00221215 Ry
     correction to one-el term =       1.15108300 Ry

     iteration # 17     ecut=    20.00 Ry     beta= 0.70
     Davidson diagonalization with overlap
     ethr =  2.20E-10,  avg # of iterations =  5.0

     negative rho (up, down):  4.808E-03 0.000E+00

     add environment contribution to local potential

     total cpu time spent up to now is      127.4 secs

     total energy              =    -186.07562599 Ry
     estimated scf accuracy    <       0.00000009 Ry
     electrostatic embedding   =      -0.00728061 Ry
     electrolyte free energy   =      -0.00221213 Ry
     correction to one-el term =       1.15583844 Ry

     iteration # 18     ecut=    20.00 Ry     beta= 0.70
     Davidson diagonalization with overlap
     ethr =  2.20E-10,  avg # of iterations =  4.0

     negative rho (up, down):  4.809E-03 0.000E+00

     add environment contribution to local potential

     total cpu time spent up to now is      128.7 secs

     total energy              =    -186.07563025 Ry
     estimated scf accuracy    <       0.00000006 Ry
     electrostatic embedding   =      -0.00723884 Ry
     electrolyte free energy   =      -0.00221212 Ry
     correction to one-el term =       1.15851386 Ry

     iteration # 19     ecut=    20.00 Ry     beta= 0.70
     Davidson diagonalization with overlap
     ethr =  2.20E-10,  avg # of iterations =  3.0

     negative rho (up, down):  3.302E-03 0.000E+00

     the potential shift due to the Gaussian-smeared nuclei is    -0.1033 ev

     total cpu time spent up to now is      129.6 secs

     End of self-consistent calculation

          k = 0.0000 0.0000 0.0000 (  5049 PWs)   bands (ev):

   -16.7934 -14.5541 -11.3114  -7.8973  -7.8575  -7.4143  -6.4631  -5.3446
    -4.7396  -4.1768  -4.0232  -2.9593

     the Fermi energy is    -5.3348 ev

     WARNING: integrated charge=    16.00000000, expected=    15.99545000

!    total energy              =    -186.07562997 Ry

     total all-electron energy =     -2319.459090 Ry
     estimated scf accuracy    <          5.9E-10 Ry
     smearing contrib. (-TS)   =       0.00000000 Ry
     internal energy E=F+TS    =    -186.07562997 Ry

     The total energy is F=E-TS. E is the sum of the following terms:
     one-electron contribution =    -416.44035897 Ry
     hartree contribution      =     209.53223943 Ry
     xc contribution           =     -24.25520748 Ry
     ewald contribution        =     186.30364135 Ry
     one-center paw contrib.   =    -142.36479663 Ry
     electrostatic embedding   =      -0.00724297 Ry
     electrolyte free energy   =      -0.00221214 Ry
     correction to one-el term =       1.15830742 Ry

     WARNING: you are using the parabolic pbc correction;
              the potential shift above must be added to 
              band and Fermi energies.

     convergence has been achieved in  19 iterations

     negative rho (up, down):  3.302E-03 0.000E+00


***************************************************

     Finished charge convergence step :   2

     Convergence of charge with accuracy <     0.00000684 e

     Charge trapped in surface states:     0.00455000

     Difference between bulk and DFT fermi:     0.00033925

     Final Potential:    -0.25440374 V

     Output written to q-v.dat       

***************************************************

     Forces acting on atoms (cartesian axes, Ry/au):

     atom    1 type  1   force =     0.00000000    0.00000000    0.01079168
     atom    2 type  1   force =     0.00000000    0.00000000   -0.01079168
     atom    3 type  1   force =     0.00000000    0.00000000    0.00123363
     atom    4 type  1   force =     0.00000000    0.00000000   -0.00123363

     Total force =     0.015361     Total SCF correction =     0.000014

     Writing all to output data dir /home/simplogic86/Work/QE/Environ/tests/../..//tempdir/Si.save/
 
     init_run     :      0.81s CPU      0.87s WALL (       1 calls)
     electrons    :    123.37s CPU    124.91s WALL (       3 calls)
     update_pot   :      1.14s CPU      1.14s WALL (       2 calls)
     forces       :      3.83s CPU      3.90s WALL (       3 calls)

     Called by init_run:
     wfcinit      :      0.04s CPU      0.04s WALL (       1 calls)
     potinit      :      0.47s CPU      0.49s WALL (       1 calls)
     hinit0       :      0.23s CPU      0.23s WALL (       1 calls)

     Called by electrons:
     c_bands      :      9.52s CPU      9.55s WALL (      75 calls)
     sum_band     :      8.47s CPU      9.13s WALL (      75 calls)
     v_of_rho     :      2.69s CPU      2.72s WALL (      76 calls)
     newd         :      4.95s CPU      5.58s WALL (      76 calls)
     PAW_pot      :     39.27s CPU     39.29s WALL (      78 calls)
     mix_rho      :     31.26s CPU     31.40s WALL (      75 calls)

     Called by c_bands:
     init_us_2    :      0.25s CPU      0.25s WALL (     153 calls)
     init_us_2:cp :      0.24s CPU      0.25s WALL (     153 calls)
     cegterg      :      7.67s CPU      7.69s WALL (      75 calls)

     Called by *egterg:
     cdiaghg      :      0.07s CPU      0.07s WALL (     299 calls)
     h_psi        :      6.60s CPU      6.62s WALL (     304 calls)
     s_psi        :      0.40s CPU      0.40s WALL (     304 calls)
     g_psi        :      0.03s CPU      0.03s WALL (     228 calls)

     Called by h_psi:
     h_psi:calbec :      0.36s CPU      0.36s WALL (     304 calls)
     vloc_psi     :      5.79s CPU      5.81s WALL (     304 calls)
     add_vuspsi   :      0.41s CPU      0.41s WALL (     304 calls)

     General routines
     calbec       :      0.49s CPU      0.50s WALL (     393 calls)
     fft          :      0.88s CPU      0.90s WALL (     871 calls)
     ffts         :     13.63s CPU     13.68s WALL (   12885 calls)
     fftw         :      6.02s CPU      6.05s WALL (    5828 calls)
 
     Parallel routines
 
     Environ routines
 
     PWSCF        :   2m 8.08s CPU   2m 9.78s WALL

 
   This run was terminated on:  14:14:28  25Mar2022            

=------------------------------------------------------------------------------=
   JOB DONE.
=------------------------------------------------------------------------------=
