
     Program PWSCF v.6.8 starts on 23Mar2022 at  8:51:31 

     This program is part of the open-source Quantum ESPRESSO suite
     for quantum simulation of materials; please cite
         "P. Giannozzi et al., J. Phys.:Condens. Matter 21 395502 (2009);
         "P. Giannozzi et al., J. Phys.:Condens. Matter 29 465901 (2017);
         "P. Giannozzi et al., J. Chem. Phys. 152 154105 (2020);
          URL http://www.quantum-espresso.org", 
     in publications or presentations arising from this work. More details at
     http://www.quantum-espresso.org/quote

     Parallel version (MPI), running on     1 processors

     MPI processes distributed on     1 nodes
     62094 MiB available memory on the printing compute node when the environment starts
 
     Reading input from scf.in

     Current dimensions of program PWSCF are:
     Max number of different atomic species (ntypx) = 10
     Max number of k-points (npk) =  40000
     Max angular momentum in pseudopotentials (lmaxx) =  4
 
     Reading input from environ.in:
     * using electronic solvent mode
     * setting boundary derivatives method to SCCS default
     * setting electrolyte-boundary derivatives method to SCCS default
 
     file Si.pbe-n-kjpaw_psl.1.0.0.UPF: wavefunction(s)  3S 3P renormalized


*******************************************

     Running initial calculation for flatband.

     Using charge of:     0.00000000

*******************************************
     Message from routine setup:
     using ibrav=0 with symmetry is DISCOURAGED, use correct ibrav instead

     Subspace diagonalization in iterative solution of the eigenvalue problem:
     a serial algorithm will be used

 
     G-vector sticks info
     --------------------
     sticks:   dense  smooth     PW     G-vecs:    dense   smooth      PW
     Sum         341     341     89                40125    40125    5049
 
     Using Slab Decomposition
 


     bravais-lattice index     =            0
     lattice parameter (alat)  =       7.3075  a.u.
     unit-cell volume          =    3311.1351 (a.u.)^3
     number of atoms/cell      =            4
     number of atomic types    =            1
     number of electrons       =        16.00
     number of Kohn-Sham states=           12
     kinetic-energy cutoff     =      20.0000  Ry
     charge density cutoff     =      80.0000  Ry
     scf convergence threshold =      1.0E-08
     mixing beta               =       0.7000
     number of iterations used =            8  local-TF  mixing
     Exchange-correlation= SLA  PW   PBX  PBC
                           (   1   4   3   4   0   0   0)

     ================================================================================
 
                                  Environ Setup Summary

     ================================================================================
 
     Please cite
         "O. Andreussi, I. Dabo and N. Marzari, J. Chem. Phys. 136, 064102 (2012)"
     in publications or presentations arising from this work.

     Parameters
     ==========

     compensation onset threshold      =               0.1000E+00
     static permittivity               =                    78.30

     Solvent Boundary
     ================

     solvent mode                      =               electronic
     derivatives method                =                    chain
     electrolyte derivatives method    =                    chain
     numerical core for derivatives    =                      fft
     switching function adopted        =                     SCCS
     density limit for vacuum region   =               0.5000E-02
     density limit for bulk solvent    =               0.1000E-03

     Electrostatic Setup
     ===================

     electrostatic problem to solve    =              generalized
     numerical solver adopted          =              fixed-point
     type of auxiliary density adopted =                     full
     numerical core for poisson        =                      fft
     type of pbc corrections           =                   ms-gcs
     numerical core for corrections    =                      1da

     ================================================================================
 

     celldm(1)=   7.307524  celldm(2)=   0.000000  celldm(3)=   0.000000
     celldm(4)=   0.000000  celldm(5)=   0.000000  celldm(6)=   0.000000

     crystal axes: (cart. coord. in units of alat)
               a(1) = (   1.000000   0.000000   0.000000 )  
               a(2) = (   0.000000   1.000000   0.000000 )  
               a(3) = (   0.000000   0.000000   8.485281 )  

     reciprocal axes: (cart. coord. in units 2 pi/alat)
               b(1) = (  1.000000  0.000000  0.000000 )  
               b(2) = (  0.000000  1.000000  0.000000 )  
               b(3) = (  0.000000  0.000000  0.117851 )  


     PseudoPot. # 1 for Si read from file:
     /ascldap/users/qcampbe/Pseudos/pslibrary.1.0.0/pbe/PSEUDOPOTENTIALS/Si.pbe-n-kjpaw_psl.1.0.0.UPF
     MD5 check sum: f6fdc0b5ea41c4765647ac85391047bf
     Pseudo is Projector augmented-wave + core cor, Zval =  4.0
     Generated using &quot;atomic&quot; code by A. Dal Corso  v.6.4.1
     Shape of augmentation charge: PSQ
     Using radial grid of 1141 points,  6 beta functions with: 
                l(1) =   0
                l(2) =   0
                l(3) =   1
                l(4) =   1
                l(5) =   2
                l(6) =   2
     Q(r) pseudized with 0 coefficients 


     atomic species   valence    mass     pseudopotential
        Si             4.00    28.08550     Si( 1.00)

      8 Sym. Ops., with inversion, found ( 4 have fractional translation)


                                    s                        frac. trans.

      isym =  1     identity                                     

 cryst.   s( 1) = (     1          0          0      )
                  (     0          1          0      )
                  (     0          0          1      )

 cart.    s( 1) = (  1.0000000  0.0000000  0.0000000 )
                  (  0.0000000  1.0000000  0.0000000 )
                  (  0.0000000  0.0000000  1.0000000 )


      isym =  2     180 deg rotation - cart. axis [0,0,1]        

 cryst.   s( 2) = (    -1          0          0      )
                  (     0         -1          0      )
                  (     0          0          1      )

 cart.    s( 2) = ( -1.0000000  0.0000000  0.0000000 )
                  (  0.0000000 -1.0000000  0.0000000 )
                  (  0.0000000  0.0000000  1.0000000 )


      isym =  3     180 deg rotation - cart. axis [0,1,0]        

 cryst.   s( 3) = (    -1          0          0      )    f =(  0.5000000 )
                  (     0          1          0      )       (  0.0000000 )
                  (     0          0         -1      )       (  0.0000000 )

 cart.    s( 3) = ( -1.0000000  0.0000000  0.0000000 )    f =(  0.5000000 )
                  (  0.0000000  1.0000000  0.0000000 )       (  0.0000000 )
                  (  0.0000000  0.0000000 -1.0000000 )       (  0.0000000 )


      isym =  4     180 deg rotation - cart. axis [1,0,0]        

 cryst.   s( 4) = (     1          0          0      )    f =(  0.5000000 )
                  (     0         -1          0      )       (  0.0000000 )
                  (     0          0         -1      )       (  0.0000000 )

 cart.    s( 4) = (  1.0000000  0.0000000  0.0000000 )    f =(  0.5000000 )
                  (  0.0000000 -1.0000000  0.0000000 )       (  0.0000000 )
                  (  0.0000000  0.0000000 -1.0000000 )       (  0.0000000 )


      isym =  5     inversion                                    

 cryst.   s( 5) = (    -1          0          0      )    f =(  0.5000000 )
                  (     0         -1          0      )       (  0.0000000 )
                  (     0          0         -1      )       (  0.0000000 )

 cart.    s( 5) = ( -1.0000000  0.0000000  0.0000000 )    f =(  0.5000000 )
                  (  0.0000000 -1.0000000  0.0000000 )       (  0.0000000 )
                  (  0.0000000  0.0000000 -1.0000000 )       (  0.0000000 )


      isym =  6     inv. 180 deg rotation - cart. axis [0,0,1]   

 cryst.   s( 6) = (     1          0          0      )    f =(  0.5000000 )
                  (     0          1          0      )       (  0.0000000 )
                  (     0          0         -1      )       (  0.0000000 )

 cart.    s( 6) = (  1.0000000  0.0000000  0.0000000 )    f =(  0.5000000 )
                  (  0.0000000  1.0000000  0.0000000 )       (  0.0000000 )
                  (  0.0000000  0.0000000 -1.0000000 )       (  0.0000000 )


      isym =  7     inv. 180 deg rotation - cart. axis [0,1,0]   

 cryst.   s( 7) = (     1          0          0      )
                  (     0         -1          0      )
                  (     0          0          1      )

 cart.    s( 7) = (  1.0000000  0.0000000  0.0000000 )
                  (  0.0000000 -1.0000000  0.0000000 )
                  (  0.0000000  0.0000000  1.0000000 )


      isym =  8     inv. 180 deg rotation - cart. axis [1,0,0]   

 cryst.   s( 8) = (    -1          0          0      )
                  (     0          1          0      )
                  (     0          0          1      )

 cart.    s( 8) = ( -1.0000000  0.0000000  0.0000000 )
                  (  0.0000000  1.0000000  0.0000000 )
                  (  0.0000000  0.0000000  1.0000000 )


   Cartesian axes

     site n.     atom                  positions (alat units)
         1           Si  tau(   1) = (   1.0000000   0.5000000   4.7729703  )
         2           Si  tau(   2) = (   0.5000000   0.5000000   3.7123103  )
         3           Si  tau(   3) = (   0.5000000   1.0000000   4.0658665  )
         4           Si  tau(   4) = (   1.0000000   0.0000000   4.4194142  )

   Crystallographic axes

     site n.     atom                  positions (cryst. coord.)
         1           Si  tau(   1) = (  1.0000000  0.5000000  0.5625000  )
         2           Si  tau(   2) = (  0.5000000  0.5000000  0.4375000  )
         3           Si  tau(   3) = (  0.5000000  1.0000000  0.4791670  )
         4           Si  tau(   4) = (  1.0000000  0.0000000  0.5208330  )

     number of k points=     1  Marzari-Vanderbilt smearing, width (Ry)=  0.0001
                       cart. coord. in units 2pi/alat
        k(    1) = (   0.0000000   0.0000000   0.0000000), wk =   2.0000000

                       cryst. coord.
        k(    1) = (   0.0000000   0.0000000   0.0000000), wk =   2.0000000

     Dense  grid:    40125 G-vectors     FFT dimensions: (  24,  24, 180)

     Dynamical RAM for                 wfc:       0.92 MB

     Dynamical RAM for     wfc (w. buffer):       0.92 MB

     Dynamical RAM for           str. fact:       0.61 MB

     Dynamical RAM for           local pot:       0.00 MB

     Dynamical RAM for          nlocal pot:       5.49 MB

     Dynamical RAM for                qrad:       0.72 MB

     Dynamical RAM for          rho,v,vnew:       4.21 MB

     Dynamical RAM for               rhoin:       1.40 MB

     Dynamical RAM for            rho*nmix:       9.80 MB

     Dynamical RAM for           G-vectors:       2.60 MB

     Dynamical RAM for          h,s,v(r/c):       0.03 MB

     Dynamical RAM for          <psi|beta>:       0.01 MB

     Dynamical RAM for                 psi:       1.83 MB

     Dynamical RAM for                hpsi:       1.83 MB

     Dynamical RAM for                spsi:       1.83 MB

     Dynamical RAM for      wfcinit/wfcrot:       2.45 MB

     Dynamical RAM for           addusdens:     116.33 MB

     Dynamical RAM for          addusforce:     120.32 MB

     Estimated static dynamical RAM per process >      21.14 MB

     Estimated max dynamical RAM per process >     151.26 MB

Environ Warning (1005): wrong integral of erfc function


     Check: negative core charge=   -0.000003

     Initial potential from superposition of free atoms

     starting charge   15.99776, renormalised to   16.00000

     negative rho (up, down):  3.080E-03 0.000E+00
     Starting wfcs are   16 randomized atomic wfcs
     Checking if some PAW data can be deallocated... 

     total cpu time spent up to now is        2.7 secs

     Self-consistent Calculation

     iteration #  1     ecut=    20.00 Ry     beta= 0.70
     Davidson diagonalization with overlap

---- Real-time Memory Report at c_bands before calling an iterative solver
           228 MiB given to the printing process from OS
             0 MiB allocation reported by mallinfo(arena+hblkhd)
         61951 MiB available memory on the node where the printing process lives
------------------
     ethr =  1.00E-02,  avg # of iterations =  3.0

     negative rho (up, down):  6.165E-03 0.000E+00

     total cpu time spent up to now is        5.1 secs

     total energy              =    -186.07660789 Ry
     estimated scf accuracy    <       0.26721769 Ry
     electrostatic embedding   =       0.00000000 Ry
     electrolyte free energy   =       0.00001123 Ry
     correction to one-el term =       0.00000000 Ry

     iteration #  2     ecut=    20.00 Ry     beta= 0.70
     Davidson diagonalization with overlap

---- Real-time Memory Report at c_bands before calling an iterative solver
           243 MiB given to the printing process from OS
             0 MiB allocation reported by mallinfo(arena+hblkhd)
         61936 MiB available memory on the node where the printing process lives
------------------
     ethr =  1.67E-03,  avg # of iterations =  1.0

     negative rho (up, down):  1.164E-02 0.000E+00

     add environment contribution to local potential
     Polarization accuracy = 6.2E-12, # of iterations =  24

     total cpu time spent up to now is        7.9 secs

     total energy              =    -186.06261784 Ry
     estimated scf accuracy    <       0.07623057 Ry
     electrostatic embedding   =       0.00000000 Ry
     electrolyte free energy   =       0.00001123 Ry
     correction to one-el term =       0.00000000 Ry

     iteration #  3     ecut=    20.00 Ry     beta= 0.70
     Davidson diagonalization with overlap

---- Real-time Memory Report at c_bands before calling an iterative solver
           244 MiB given to the printing process from OS
             0 MiB allocation reported by mallinfo(arena+hblkhd)
         61935 MiB available memory on the node where the printing process lives
------------------
     ethr =  4.76E-04,  avg # of iterations =  2.0

     negative rho (up, down):  1.193E-02 0.000E+00

     add environment contribution to local potential
     Polarization accuracy = 5.1E-12, # of iterations =  18

     total cpu time spent up to now is       10.3 secs

     total energy              =    -186.07863100 Ry
     estimated scf accuracy    <       0.00486764 Ry
     electrostatic embedding   =      -0.00176723 Ry
     electrolyte free energy   =      -0.00014362 Ry
     correction to one-el term =       2.28392732 Ry

     iteration #  4     ecut=    20.00 Ry     beta= 0.70
     Davidson diagonalization with overlap

---- Real-time Memory Report at c_bands before calling an iterative solver
           246 MiB given to the printing process from OS
             0 MiB allocation reported by mallinfo(arena+hblkhd)
         61934 MiB available memory on the node where the printing process lives
------------------
     ethr =  3.04E-05,  avg # of iterations =  9.0

     negative rho (up, down):  1.205E-02 0.000E+00

     add environment contribution to local potential
     Polarization accuracy = 8.8E-12, # of iterations =  13

     total cpu time spent up to now is       12.9 secs

     total energy              =    -186.08064962 Ry
     estimated scf accuracy    <       0.00613278 Ry
     electrostatic embedding   =      -0.00208182 Ry
     electrolyte free energy   =      -0.00015024 Ry
     correction to one-el term =       2.26690340 Ry

     iteration #  5     ecut=    20.00 Ry     beta= 0.70
     Davidson diagonalization with overlap

---- Real-time Memory Report at c_bands before calling an iterative solver
           247 MiB given to the printing process from OS
             0 MiB allocation reported by mallinfo(arena+hblkhd)
         61933 MiB available memory on the node where the printing process lives
------------------
     ethr =  3.04E-05,  avg # of iterations =  1.0

     negative rho (up, down):  1.410E-02 0.000E+00

     add environment contribution to local potential
     Polarization accuracy = 9.0E-12, # of iterations =  19

     total cpu time spent up to now is       15.4 secs

     total energy              =    -186.07904739 Ry
     estimated scf accuracy    <       0.00546081 Ry
     electrostatic embedding   =      -0.00211962 Ry
     electrolyte free energy   =      -0.00015074 Ry
     correction to one-el term =       2.26985783 Ry

     iteration #  6     ecut=    20.00 Ry     beta= 0.70
     Davidson diagonalization with overlap

---- Real-time Memory Report at c_bands before calling an iterative solver
           248 MiB given to the printing process from OS
             0 MiB allocation reported by mallinfo(arena+hblkhd)
         61932 MiB available memory on the node where the printing process lives
------------------
     ethr =  3.04E-05,  avg # of iterations =  3.0

     negative rho (up, down):  1.408E-02 0.000E+00

     add environment contribution to local potential
     Polarization accuracy = 9.1E-12, # of iterations =  16

     total cpu time spent up to now is       17.7 secs

     total energy              =    -186.08131551 Ry
     estimated scf accuracy    <       0.00303931 Ry
     electrostatic embedding   =      -0.00317108 Ry
     electrolyte free energy   =      -0.00016324 Ry
     correction to one-el term =       2.27944279 Ry

     iteration #  7     ecut=    20.00 Ry     beta= 0.70
     Davidson diagonalization with overlap

---- Real-time Memory Report at c_bands before calling an iterative solver
           249 MiB given to the printing process from OS
             0 MiB allocation reported by mallinfo(arena+hblkhd)
         61931 MiB available memory on the node where the printing process lives
------------------
     ethr =  1.90E-05,  avg # of iterations =  1.0

     negative rho (up, down):  1.257E-02 0.000E+00

     add environment contribution to local potential
     Polarization accuracy = 6.7E-12, # of iterations =  19

     total cpu time spent up to now is       20.1 secs

     total energy              =    -186.08015819 Ry
     estimated scf accuracy    <       0.00211611 Ry
     electrostatic embedding   =      -0.00349123 Ry
     electrolyte free energy   =      -0.00016732 Ry
     correction to one-el term =       2.26670763 Ry

     iteration #  8     ecut=    20.00 Ry     beta= 0.70
     Davidson diagonalization with overlap

---- Real-time Memory Report at c_bands before calling an iterative solver
           251 MiB given to the printing process from OS
             0 MiB allocation reported by mallinfo(arena+hblkhd)
         61930 MiB available memory on the node where the printing process lives
------------------
     ethr =  1.32E-05,  avg # of iterations =  3.0

     negative rho (up, down):  1.239E-02 0.000E+00

     add environment contribution to local potential
     Polarization accuracy = 4.5E-12, # of iterations =  18

     total cpu time spent up to now is       22.5 secs

     total energy              =    -186.08150759 Ry
     estimated scf accuracy    <       0.00338103 Ry
     electrostatic embedding   =      -0.00451436 Ry
     electrolyte free energy   =      -0.00017911 Ry
     correction to one-el term =       2.16675946 Ry

     iteration #  9     ecut=    20.00 Ry     beta= 0.70
     Davidson diagonalization with overlap

---- Real-time Memory Report at c_bands before calling an iterative solver
           252 MiB given to the printing process from OS
             0 MiB allocation reported by mallinfo(arena+hblkhd)
         61929 MiB available memory on the node where the printing process lives
------------------
     ethr =  1.32E-05,  avg # of iterations =  2.0

     negative rho (up, down):  1.110E-02 0.000E+00

     add environment contribution to local potential
     Polarization accuracy = 7.5E-12, # of iterations =  20

     total cpu time spent up to now is       25.0 secs

     total energy              =    -186.08056323 Ry
     estimated scf accuracy    <       0.00273163 Ry
     electrostatic embedding   =      -0.00549038 Ry
     electrolyte free energy   =      -0.00018833 Ry
     correction to one-el term =       2.10323107 Ry

     iteration # 10     ecut=    20.00 Ry     beta= 0.70
     Davidson diagonalization with overlap

---- Real-time Memory Report at c_bands before calling an iterative solver
           253 MiB given to the printing process from OS
             0 MiB allocation reported by mallinfo(arena+hblkhd)
         61928 MiB available memory on the node where the printing process lives
------------------
     ethr =  1.32E-05,  avg # of iterations =  2.0

     negative rho (up, down):  9.702E-03 0.000E+00

     add environment contribution to local potential
     Polarization accuracy = 4.7E-12, # of iterations =  21

     total cpu time spent up to now is       27.5 secs

     total energy              =    -186.08113868 Ry
     estimated scf accuracy    <       0.00033763 Ry
     electrostatic embedding   =      -0.00840800 Ry
     electrolyte free energy   =      -0.00020410 Ry
     correction to one-el term =       1.85764672 Ry

     iteration # 11     ecut=    20.00 Ry     beta= 0.70
     Davidson diagonalization with overlap

---- Real-time Memory Report at c_bands before calling an iterative solver
           253 MiB given to the printing process from OS
             0 MiB allocation reported by mallinfo(arena+hblkhd)
         61928 MiB available memory on the node where the printing process lives
------------------
     ethr =  2.11E-06,  avg # of iterations =  7.0

     negative rho (up, down):  8.302E-03 0.000E+00

     add environment contribution to local potential
     Polarization accuracy = 7.6E-12, # of iterations =  21

     total cpu time spent up to now is       30.0 secs

     total energy              =    -186.08101216 Ry
     estimated scf accuracy    <       0.00147095 Ry
     electrostatic embedding   =      -0.00952092 Ry
     electrolyte free energy   =      -0.00020306 Ry
     correction to one-el term =       1.71791068 Ry

     iteration # 12     ecut=    20.00 Ry     beta= 0.70
     Davidson diagonalization with overlap

---- Real-time Memory Report at c_bands before calling an iterative solver
           253 MiB given to the printing process from OS
             0 MiB allocation reported by mallinfo(arena+hblkhd)
         61928 MiB available memory on the node where the printing process lives
------------------
     ethr =  2.11E-06,  avg # of iterations =  3.0

     negative rho (up, down):  5.038E-03 0.000E+00

     add environment contribution to local potential
     Polarization accuracy = 5.1E-12, # of iterations =  31

     total cpu time spent up to now is       33.0 secs

     total energy              =    -186.08142214 Ry
     estimated scf accuracy    <       0.00025779 Ry
     electrostatic embedding   =      -0.01110895 Ry
     electrolyte free energy   =      -0.00020899 Ry
     correction to one-el term =       1.54817039 Ry

     iteration # 13     ecut=    20.00 Ry     beta= 0.70
     Davidson diagonalization with overlap

---- Real-time Memory Report at c_bands before calling an iterative solver
           253 MiB given to the printing process from OS
             0 MiB allocation reported by mallinfo(arena+hblkhd)
         61928 MiB available memory on the node where the printing process lives
------------------
     ethr =  1.61E-06,  avg # of iterations =  6.0

     negative rho (up, down):  4.908E-03 0.000E+00

     add environment contribution to local potential
     Polarization accuracy = 6.6E-12, # of iterations =  36

     total cpu time spent up to now is       35.9 secs

     total energy              =    -186.08056126 Ry
     estimated scf accuracy    <       0.00383462 Ry
     electrostatic embedding   =      -0.01615706 Ry
     electrolyte free energy   =      -0.00022440 Ry
     correction to one-el term =       1.06331896 Ry

     iteration # 14     ecut=    20.00 Ry     beta= 0.70
     Davidson diagonalization with overlap

---- Real-time Memory Report at c_bands before calling an iterative solver
           253 MiB given to the printing process from OS
             0 MiB allocation reported by mallinfo(arena+hblkhd)
         61918 MiB available memory on the node where the printing process lives
------------------
     ethr =  1.61E-06,  avg # of iterations =  4.0

     negative rho (up, down):  5.596E-03 0.000E+00

     add environment contribution to local potential
     Polarization accuracy = 7.7E-12, # of iterations =  34

     total cpu time spent up to now is       38.8 secs

     total energy              =    -186.08118133 Ry
     estimated scf accuracy    <       0.00189272 Ry
     electrostatic embedding   =      -0.01911848 Ry
     electrolyte free energy   =      -0.00024747 Ry
     correction to one-el term =       0.86993143 Ry

     iteration # 15     ecut=    20.00 Ry     beta= 0.70
     Davidson diagonalization with overlap

---- Real-time Memory Report at c_bands before calling an iterative solver
           253 MiB given to the printing process from OS
             0 MiB allocation reported by mallinfo(arena+hblkhd)
         61885 MiB available memory on the node where the printing process lives
------------------
     ethr =  1.61E-06,  avg # of iterations =  3.0

     negative rho (up, down):  4.190E-03 0.000E+00

     add environment contribution to local potential
     Polarization accuracy = 8.2E-12, # of iterations =  33

     total cpu time spent up to now is       41.5 secs

     total energy              =    -186.08075951 Ry
     estimated scf accuracy    <       0.00289069 Ry
     electrostatic embedding   =      -0.01760644 Ry
     electrolyte free energy   =      -0.00024320 Ry
     correction to one-el term =       0.94549796 Ry

     iteration # 16     ecut=    20.00 Ry     beta= 0.70
     Davidson diagonalization with overlap

---- Real-time Memory Report at c_bands before calling an iterative solver
           253 MiB given to the printing process from OS
             0 MiB allocation reported by mallinfo(arena+hblkhd)
         61886 MiB available memory on the node where the printing process lives
------------------
     ethr =  1.61E-06,  avg # of iterations =  5.0

     negative rho (up, down):  3.924E-03 0.000E+00

     add environment contribution to local potential
     Polarization accuracy = 6.0E-12, # of iterations =  27

     total cpu time spent up to now is       44.2 secs

     total energy              =    -186.08041166 Ry
     estimated scf accuracy    <       0.00012051 Ry
     electrostatic embedding   =      -0.01965356 Ry
     electrolyte free energy   =      -0.00023950 Ry
     correction to one-el term =       0.84697794 Ry

     iteration # 17     ecut=    20.00 Ry     beta= 0.70
     Davidson diagonalization with overlap

---- Real-time Memory Report at c_bands before calling an iterative solver
           253 MiB given to the printing process from OS
             0 MiB allocation reported by mallinfo(arena+hblkhd)
         61886 MiB available memory on the node where the printing process lives
------------------
     ethr =  7.53E-07,  avg # of iterations =  2.0

     negative rho (up, down):  3.545E-03 0.000E+00

     add environment contribution to local potential
     Polarization accuracy = 4.8E-12, # of iterations =  26

     total cpu time spent up to now is       46.8 secs

     total energy              =    -186.08043049 Ry
     estimated scf accuracy    <       0.00011873 Ry
     electrostatic embedding   =      -0.01874359 Ry
     electrolyte free energy   =      -0.00023411 Ry
     correction to one-el term =       0.89731636 Ry

     iteration # 18     ecut=    20.00 Ry     beta= 0.70
     Davidson diagonalization with overlap

---- Real-time Memory Report at c_bands before calling an iterative solver
           253 MiB given to the printing process from OS
             0 MiB allocation reported by mallinfo(arena+hblkhd)
         61887 MiB available memory on the node where the printing process lives
------------------
     ethr =  7.42E-07,  avg # of iterations =  5.0

     negative rho (up, down):  3.538E-03 0.000E+00

     add environment contribution to local potential
     Polarization accuracy = 4.3E-12, # of iterations =  19

     total cpu time spent up to now is       49.3 secs

     total energy              =    -186.08095207 Ry
     estimated scf accuracy    <       0.00012929 Ry
     electrostatic embedding   =      -0.01649076 Ry
     electrolyte free energy   =      -0.00021037 Ry
     correction to one-el term =       1.05582980 Ry

     iteration # 19     ecut=    20.00 Ry     beta= 0.70
     Davidson diagonalization with overlap

---- Real-time Memory Report at c_bands before calling an iterative solver
           253 MiB given to the printing process from OS
             0 MiB allocation reported by mallinfo(arena+hblkhd)
         61887 MiB available memory on the node where the printing process lives
------------------
     ethr =  7.42E-07,  avg # of iterations =  1.0

     negative rho (up, down):  3.274E-03 0.000E+00

     add environment contribution to local potential
     Polarization accuracy = 8.7E-12, # of iterations =  20

     total cpu time spent up to now is       51.8 secs

     total energy              =    -186.08093202 Ry
     estimated scf accuracy    <       0.00010224 Ry
     electrostatic embedding   =      -0.01604424 Ry
     electrolyte free energy   =      -0.00021049 Ry
     correction to one-el term =       1.07989043 Ry

     iteration # 20     ecut=    20.00 Ry     beta= 0.70
     Davidson diagonalization with overlap

---- Real-time Memory Report at c_bands before calling an iterative solver
           253 MiB given to the printing process from OS
             0 MiB allocation reported by mallinfo(arena+hblkhd)
         61887 MiB available memory on the node where the printing process lives
------------------
     ethr =  6.39E-07,  avg # of iterations =  2.0

     negative rho (up, down):  3.287E-03 0.000E+00

     add environment contribution to local potential
     Polarization accuracy = 9.1E-12, # of iterations =  22

     total cpu time spent up to now is       54.4 secs

     total energy              =    -186.08084319 Ry
     estimated scf accuracy    <       0.00000251 Ry
     electrostatic embedding   =      -0.01619144 Ry
     electrolyte free energy   =      -0.00021257 Ry
     correction to one-el term =       1.04356787 Ry

     iteration # 21     ecut=    20.00 Ry     beta= 0.70
     Davidson diagonalization with overlap

---- Real-time Memory Report at c_bands before calling an iterative solver
           253 MiB given to the printing process from OS
             0 MiB allocation reported by mallinfo(arena+hblkhd)
         61887 MiB available memory on the node where the printing process lives
------------------
     ethr =  1.57E-08,  avg # of iterations =  6.0

     negative rho (up, down):  3.295E-03 0.000E+00

     add environment contribution to local potential
     Polarization accuracy = 6.9E-12, # of iterations =  20

     total cpu time spent up to now is       57.0 secs

     total energy              =    -186.08092858 Ry
     estimated scf accuracy    <       0.00000663 Ry
     electrostatic embedding   =      -0.01552337 Ry
     electrolyte free energy   =      -0.00020854 Ry
     correction to one-el term =       1.08537364 Ry

     iteration # 22     ecut=    20.00 Ry     beta= 0.70
     Davidson diagonalization with overlap

---- Real-time Memory Report at c_bands before calling an iterative solver
           253 MiB given to the printing process from OS
             0 MiB allocation reported by mallinfo(arena+hblkhd)
         61887 MiB available memory on the node where the printing process lives
------------------
     ethr =  1.57E-08,  avg # of iterations =  5.0

     negative rho (up, down):  3.304E-03 0.000E+00

     add environment contribution to local potential
     Polarization accuracy = 8.2E-12, # of iterations =  19

     total cpu time spent up to now is       59.5 secs

     total energy              =    -186.08097470 Ry
     estimated scf accuracy    <       0.00000455 Ry
     electrostatic embedding   =      -0.01531532 Ry
     electrolyte free energy   =      -0.00020640 Ry
     correction to one-el term =       1.10231873 Ry

     iteration # 23     ecut=    20.00 Ry     beta= 0.70
     Davidson diagonalization with overlap

---- Real-time Memory Report at c_bands before calling an iterative solver
           253 MiB given to the printing process from OS
             0 MiB allocation reported by mallinfo(arena+hblkhd)
         61886 MiB available memory on the node where the printing process lives
------------------
     ethr =  1.57E-08,  avg # of iterations =  3.0

     negative rho (up, down):  3.309E-03 0.000E+00

     add environment contribution to local potential
     Polarization accuracy = 4.3E-12, # of iterations =  14

     total cpu time spent up to now is       61.8 secs

     total energy              =    -186.08099900 Ry
     estimated scf accuracy    <       0.00000177 Ry
     electrostatic embedding   =      -0.01503004 Ry
     electrolyte free energy   =      -0.00020503 Ry
     correction to one-el term =       1.11879241 Ry

     iteration # 24     ecut=    20.00 Ry     beta= 0.70
     Davidson diagonalization with overlap

---- Real-time Memory Report at c_bands before calling an iterative solver
           253 MiB given to the printing process from OS
             0 MiB allocation reported by mallinfo(arena+hblkhd)
         61886 MiB available memory on the node where the printing process lives
------------------
     ethr =  1.10E-08,  avg # of iterations =  2.0

     negative rho (up, down):  3.310E-03 0.000E+00

     add environment contribution to local potential
     Polarization accuracy = 9.2E-12, # of iterations =  11

     total cpu time spent up to now is       64.0 secs

     total energy              =    -186.08100262 Ry
     estimated scf accuracy    <       0.00000015 Ry
     electrostatic embedding   =      -0.01497863 Ry
     electrolyte free energy   =      -0.00020479 Ry
     correction to one-el term =       1.12186286 Ry

     iteration # 25     ecut=    20.00 Ry     beta= 0.70
     Davidson diagonalization with overlap

---- Real-time Memory Report at c_bands before calling an iterative solver
           253 MiB given to the printing process from OS
             0 MiB allocation reported by mallinfo(arena+hblkhd)
         61886 MiB available memory on the node where the printing process lives
------------------
     ethr =  9.33E-10,  avg # of iterations =  4.0

     negative rho (up, down):  3.306E-03 0.000E+00

     add environment contribution to local potential
     Polarization accuracy = 8.8E-12, # of iterations =   6

     total cpu time spent up to now is       66.3 secs

     total energy              =    -186.08100394 Ry
     estimated scf accuracy    <       0.00000003 Ry
     electrostatic embedding   =      -0.01497068 Ry
     electrolyte free energy   =      -0.00020472 Ry
     correction to one-el term =       1.12248856 Ry

     iteration # 26     ecut=    20.00 Ry     beta= 0.70
     Davidson diagonalization with overlap

---- Real-time Memory Report at c_bands before calling an iterative solver
           253 MiB given to the printing process from OS
             0 MiB allocation reported by mallinfo(arena+hblkhd)
         61887 MiB available memory on the node where the printing process lives
------------------
     ethr =  1.61E-10,  avg # of iterations =  4.0

     negative rho (up, down):  3.304E-03 0.000E+00

     add environment contribution to local potential
     Polarization accuracy = 7.8E-12, # of iterations =   7

     total cpu time spent up to now is       68.4 secs

     total energy              =    -186.08100363 Ry
     estimated scf accuracy    <       0.00000001 Ry
     electrostatic embedding   =      -0.01496587 Ry
     electrolyte free energy   =      -0.00020475 Ry
     correction to one-el term =       1.12250451 Ry

     iteration # 27     ecut=    20.00 Ry     beta= 0.70
     Davidson diagonalization with overlap

---- Real-time Memory Report at c_bands before calling an iterative solver
           253 MiB given to the printing process from OS
             0 MiB allocation reported by mallinfo(arena+hblkhd)
         61887 MiB available memory on the node where the printing process lives
------------------
     ethr =  7.76E-11,  avg # of iterations =  2.0

     negative rho (up, down):  3.302E-03 0.000E+00

     add environment contribution to local potential
     Polarization accuracy = 4.2E-12, # of iterations =   8

     total cpu time spent up to now is       70.5 secs

     total energy              =    -186.08100368 Ry
     estimated scf accuracy    <       0.00000004 Ry
     electrostatic embedding   =      -0.01496790 Ry
     electrolyte free energy   =      -0.00020472 Ry
     correction to one-el term =       1.12228013 Ry

     iteration # 28     ecut=    20.00 Ry     beta= 0.70
     Davidson diagonalization with overlap

---- Real-time Memory Report at c_bands before calling an iterative solver
           253 MiB given to the printing process from OS
             0 MiB allocation reported by mallinfo(arena+hblkhd)
         61887 MiB available memory on the node where the printing process lives
------------------
     ethr =  7.76E-11,  avg # of iterations =  2.0

     negative rho (up, down):  3.301E-03 0.000E+00

     add environment contribution to local potential
     Polarization accuracy = 8.3E-12, # of iterations =   6

     total cpu time spent up to now is       72.7 secs

     total energy              =    -186.08100350 Ry
     estimated scf accuracy    <       0.00000004 Ry
     electrostatic embedding   =      -0.01496132 Ry
     electrolyte free energy   =      -0.00020469 Ry
     correction to one-el term =       1.12265305 Ry

     iteration # 29     ecut=    20.00 Ry     beta= 0.70
     Davidson diagonalization with overlap

---- Real-time Memory Report at c_bands before calling an iterative solver
           253 MiB given to the printing process from OS
             0 MiB allocation reported by mallinfo(arena+hblkhd)
         61887 MiB available memory on the node where the printing process lives
------------------
     ethr =  7.76E-11,  avg # of iterations =  1.0

     negative rho (up, down):  3.302E-03 0.000E+00

     add environment contribution to local potential
     Polarization accuracy = 7.3E-12, # of iterations =   5

     total cpu time spent up to now is       74.9 secs

     total energy              =    -186.08100303 Ry
     estimated scf accuracy    <       0.00000002 Ry
     electrostatic embedding   =      -0.01496063 Ry
     electrolyte free energy   =      -0.00020470 Ry
     correction to one-el term =       1.12260218 Ry

     iteration # 30     ecut=    20.00 Ry     beta= 0.70
     Davidson diagonalization with overlap

---- Real-time Memory Report at c_bands before calling an iterative solver
           253 MiB given to the printing process from OS
             0 MiB allocation reported by mallinfo(arena+hblkhd)
         61887 MiB available memory on the node where the printing process lives
------------------
     ethr =  7.76E-11,  avg # of iterations =  1.0

     negative rho (up, down):  3.302E-03 0.000E+00

     add environment contribution to local potential
     Polarization accuracy = 7.9E-12, # of iterations =  10

     total cpu time spent up to now is       77.4 secs

     total energy              =    -186.08100351 Ry
     estimated scf accuracy    <       0.00000003 Ry
     electrostatic embedding   =      -0.01495872 Ry
     electrolyte free energy   =      -0.00020470 Ry
     correction to one-el term =       1.12276759 Ry

     iteration # 31     ecut=    20.00 Ry     beta= 0.70
     Davidson diagonalization with overlap

---- Real-time Memory Report at c_bands before calling an iterative solver
           253 MiB given to the printing process from OS
             0 MiB allocation reported by mallinfo(arena+hblkhd)
         61886 MiB available memory on the node where the printing process lives
------------------
     ethr =  7.76E-11,  avg # of iterations =  4.0

     negative rho (up, down):  3.302E-03 0.000E+00

     the potential shift due to the Gaussian-smeared nuclei is    -0.1033 ev

     total cpu time spent up to now is       78.9 secs

     End of self-consistent calculation

          k = 0.0000 0.0000 0.0000 (  5049 PWs)   bands (ev):

   -16.7582 -14.5193 -11.2760  -7.8616  -7.8222  -7.3784  -6.4276  -5.3089
    -4.7048  -4.1445  -3.9882  -2.9241

     occupation numbers 
     1.0000   1.0000   1.0000   1.0000   1.0000   1.0000   1.0000   1.0000
     0.0000   0.0000   0.0000   0.0000

     the Fermi energy is    -5.0763 ev

!    total energy              =    -186.08100248 Ry

     total all-electron energy =     -2319.464462 Ry
     estimated scf accuracy    <          3.2E-09 Ry
     smearing contrib. (-TS)   =       0.00000000 Ry
     internal energy E=F+TS    =    -186.08100248 Ry

     The total energy is F=E-TS. E is the sum of the following terms:
     one-electron contribution =    -416.40843154 Ry
     hartree contribution      =     209.53639689 Ry
     xc contribution           =     -24.25464015 Ry
     ewald contribution        =     186.30364135 Ry
     one-center paw contrib.   =    -142.36469480 Ry
      -> PAW hartree energy AE =      11.53132080 Ry
      -> PAW hartree energy PS =     -11.48546981 Ry
      -> PAW xc energy AE      =    -163.37916086 Ry
      -> PAW xc energy PS      =      20.96861507 Ry
      -> total E_H with PAW    =     209.58224789 Ry
      -> total E_XC with PAW   =    -166.66518594 Ry
     electrostatic embedding   =      -0.01497110 Ry
     electrolyte free energy   =      -0.00020473 Ry
     correction to one-el term =       1.12190159 Ry

     WARNING: you are using the parabolic pbc correction;
              the potential shift above must be added to 
              band and Fermi energies.

     convergence has been achieved in  31 iterations

     negative rho (up, down):  3.302E-03 0.000E+00
     The global environment contribution to forces
     atom    1 type  1   force =    -0.00000000    0.00000000   -0.04670424
     atom    2 type  1   force =    -0.00000000   -0.00000000    0.04671515
     atom    3 type  1   force =    -0.00000000   -0.00000000    0.00629769
     atom    4 type  1   force =    -0.00000000   -0.00000000   -0.00628663
 


***************************************************

     Flatband potential calculated as    -5.07630174

     Now using initial charge of:      0.00350000

***************************************************
     charge density from previous step

     Check: negative core charge=   -0.000003

     negative rho (up, down):  3.302E-03 0.000E+00
     extrapolated charge   16.00000, renormalised to   15.99650

Environ Warning (1005): wrong integral of erfc function


     add environment contribution to local potential
     Polarization accuracy = 7.3E-12, # of iterations =  30

     Forces acting on atoms (cartesian axes, Ry/au):

     atom    1 type  1   force =     0.00000000    0.00000000    0.01072893
     atom    2 type  1   force =     0.00000000    0.00000000   -0.01072893
     atom    3 type  1   force =     0.00000000    0.00000000    0.00123602
     atom    4 type  1   force =     0.00000000    0.00000000   -0.00123602
     The non-local contrib.  to forces
     atom    1 type  1   force =     0.00000000    0.00000000   -0.04161954
     atom    2 type  1   force =     0.00000000    0.00000000    0.04161954
     atom    3 type  1   force =     0.00000000    0.00000000   -0.05647747
     atom    4 type  1   force =     0.00000000    0.00000000    0.05647747
     The ionic contribution  to forces
     atom    1 type  1   force =    -0.00000000   -0.00000000    8.79312658
     atom    2 type  1   force =    -0.00000000   -0.00000000   -8.79312658
     atom    3 type  1   force =     0.00000000    0.00000000   -2.98930598
     atom    4 type  1   force =    -0.00000000    0.00000000    2.98930598
     The local contribution  to forces
     atom    1 type  1   force =     0.00000000   -0.00000000   -8.69635797
     atom    2 type  1   force =     0.00000000   -0.00000000    8.69635797
     atom    3 type  1   force =    -0.00000000    0.00000000    3.03500453
     atom    4 type  1   force =     0.00000000    0.00000000   -3.03500453
     The core correction contribution to forces
     atom    1 type  1   force =     0.00000000    0.00000000    0.00234367
     atom    2 type  1   force =     0.00000000    0.00000000   -0.00234367
     atom    3 type  1   force =    -0.00000000   -0.00000000    0.00568766
     atom    4 type  1   force =     0.00000000    0.00000000   -0.00568766
     The Hubbard contrib.    to forces
     atom    1 type  1   force =     0.00000000    0.00000000    0.00000000
     atom    2 type  1   force =     0.00000000    0.00000000    0.00000000
     atom    3 type  1   force =     0.00000000    0.00000000    0.00000000
     atom    4 type  1   force =     0.00000000    0.00000000    0.00000000
     The SCF correction term to forces
     atom    1 type  1   force =    -0.00000000    0.00000000   -0.00005457
     atom    2 type  1   force =    -0.00000000    0.00000000    0.00005370
     atom    3 type  1   force =    -0.00000000    0.00000000    0.00003456
     atom    4 type  1   force =    -0.00000000    0.00000000   -0.00003567

     Total force =     0.015273     Total SCF correction =     0.000091

     total cpu time spent up to now is       81.9 secs

     Self-consistent Calculation

     iteration #  1     ecut=    20.00 Ry     beta= 0.70
     Davidson diagonalization with overlap

---- Real-time Memory Report at c_bands before calling an iterative solver
           254 MiB given to the printing process from OS
             0 MiB allocation reported by mallinfo(arena+hblkhd)
         61897 MiB available memory on the node where the printing process lives
------------------
     ethr =  1.00E-06,  avg # of iterations =  1.0

     Threshold (ethr) on eigenvalues was too large:
     Diagonalizing with lowered threshold

     Davidson diagonalization with overlap

---- Real-time Memory Report at c_bands before calling an iterative solver
           254 MiB given to the printing process from OS
             0 MiB allocation reported by mallinfo(arena+hblkhd)
         61896 MiB available memory on the node where the printing process lives
------------------
     ethr =  6.04E-08,  avg # of iterations =  2.0

     negative rho (up, down):  3.392E-03 0.000E+00

     add environment contribution to local potential
     Polarization accuracy = 7.7E-12, # of iterations =  16

     total cpu time spent up to now is       84.4 secs

     total energy              =    -186.00243928 Ry
     estimated scf accuracy    <       0.00000972 Ry
     electrostatic embedding   =       0.08385461 Ry
     electrolyte free energy   =      -0.02021370 Ry
     correction to one-el term =       1.12882788 Ry

     iteration #  2     ecut=    20.00 Ry     beta= 0.70
     Davidson diagonalization with overlap

---- Real-time Memory Report at c_bands before calling an iterative solver
           254 MiB given to the printing process from OS
             0 MiB allocation reported by mallinfo(arena+hblkhd)
         61895 MiB available memory on the node where the printing process lives
------------------
     ethr =  6.08E-08,  avg # of iterations =  3.0

     negative rho (up, down):  3.386E-03 0.000E+00

     add environment contribution to local potential
     Polarization accuracy = 7.4E-12, # of iterations =  12

     total cpu time spent up to now is       86.5 secs

     total energy              =    -186.00309419 Ry
     estimated scf accuracy    <       0.00004393 Ry
     electrostatic embedding   =       0.08295487 Ry
     electrolyte free energy   =      -0.02006400 Ry
     correction to one-el term =       1.12422525 Ry

     iteration #  3     ecut=    20.00 Ry     beta= 0.70
     Davidson diagonalization with overlap

---- Real-time Memory Report at c_bands before calling an iterative solver
           254 MiB given to the printing process from OS
             0 MiB allocation reported by mallinfo(arena+hblkhd)
         61893 MiB available memory on the node where the printing process lives
------------------
     ethr =  6.08E-08,  avg # of iterations =  1.0

     negative rho (up, down):  3.370E-03 0.000E+00

     add environment contribution to local potential
     Polarization accuracy = 5.8E-12, # of iterations =  15

     total cpu time spent up to now is       88.6 secs

     total energy              =    -186.00308062 Ry
     estimated scf accuracy    <       0.00005562 Ry
     electrostatic embedding   =       0.08298557 Ry
     electrolyte free energy   =      -0.02006874 Ry
     correction to one-el term =       1.12529733 Ry

     iteration #  4     ecut=    20.00 Ry     beta= 0.70
     Davidson diagonalization with overlap

---- Real-time Memory Report at c_bands before calling an iterative solver
           254 MiB given to the printing process from OS
             0 MiB allocation reported by mallinfo(arena+hblkhd)
         61893 MiB available memory on the node where the printing process lives
------------------
     ethr =  6.08E-08,  avg # of iterations =  1.0

     negative rho (up, down):  3.535E-03 0.000E+00

     add environment contribution to local potential
     Polarization accuracy = 8.3E-12, # of iterations =  19

     total cpu time spent up to now is       90.9 secs

     total energy              =    -186.00309294 Ry
     estimated scf accuracy    <       0.00007220 Ry
     electrostatic embedding   =       0.08295901 Ry
     electrolyte free energy   =      -0.02006295 Ry
     correction to one-el term =       1.12638528 Ry

     iteration #  5     ecut=    20.00 Ry     beta= 0.70
     Davidson diagonalization with overlap

---- Real-time Memory Report at c_bands before calling an iterative solver
           254 MiB given to the printing process from OS
             0 MiB allocation reported by mallinfo(arena+hblkhd)
         61891 MiB available memory on the node where the printing process lives
------------------
     ethr =  6.08E-08,  avg # of iterations =  4.0

     negative rho (up, down):  3.887E-03 0.000E+00

     add environment contribution to local potential
     Polarization accuracy = 8.0E-12, # of iterations =  22

     total cpu time spent up to now is       93.4 secs

     total energy              =    -186.00300377 Ry
     estimated scf accuracy    <       0.00000442 Ry
     electrostatic embedding   =       0.08283199 Ry
     electrolyte free energy   =      -0.02007146 Ry
     correction to one-el term =       1.10925150 Ry

     iteration #  6     ecut=    20.00 Ry     beta= 0.70
     Davidson diagonalization with overlap

---- Real-time Memory Report at c_bands before calling an iterative solver
           254 MiB given to the printing process from OS
             0 MiB allocation reported by mallinfo(arena+hblkhd)
         61891 MiB available memory on the node where the printing process lives
------------------
     ethr =  2.76E-08,  avg # of iterations =  5.0

     negative rho (up, down):  4.065E-03 0.000E+00

     add environment contribution to local potential
     Polarization accuracy = 5.2E-12, # of iterations =  16

     total cpu time spent up to now is       95.6 secs

     total energy              =    -186.00291493 Ry
     estimated scf accuracy    <       0.00009195 Ry
     electrostatic embedding   =       0.08277020 Ry
     electrolyte free energy   =      -0.02007888 Ry
     correction to one-el term =       1.10676462 Ry

     iteration #  7     ecut=    20.00 Ry     beta= 0.70
     Davidson diagonalization with overlap

---- Real-time Memory Report at c_bands before calling an iterative solver
           254 MiB given to the printing process from OS
             0 MiB allocation reported by mallinfo(arena+hblkhd)
         61889 MiB available memory on the node where the printing process lives
------------------
     ethr =  2.76E-08,  avg # of iterations =  4.0

     negative rho (up, down):  4.225E-03 0.000E+00

     add environment contribution to local potential
     Polarization accuracy = 7.5E-12, # of iterations =  19

     total cpu time spent up to now is       98.1 secs

     total energy              =    -186.00284452 Ry
     estimated scf accuracy    <       0.00012367 Ry
     electrostatic embedding   =       0.08270394 Ry
     electrolyte free energy   =      -0.02008491 Ry
     correction to one-el term =       1.10370673 Ry

     iteration #  8     ecut=    20.00 Ry     beta= 0.70
     Davidson diagonalization with overlap

---- Real-time Memory Report at c_bands before calling an iterative solver
           254 MiB given to the printing process from OS
             0 MiB allocation reported by mallinfo(arena+hblkhd)
         61888 MiB available memory on the node where the printing process lives
------------------
     ethr =  2.76E-08,  avg # of iterations =  5.0

     negative rho (up, down):  4.324E-03 0.000E+00

     add environment contribution to local potential
     Polarization accuracy = 5.2E-12, # of iterations =  15

     total cpu time spent up to now is      100.4 secs

     total energy              =    -186.00288308 Ry
     estimated scf accuracy    <       0.00000229 Ry
     electrostatic embedding   =       0.08289062 Ry
     electrolyte free energy   =      -0.02008963 Ry
     correction to one-el term =       1.13597306 Ry

     iteration #  9     ecut=    20.00 Ry     beta= 0.70
     Davidson diagonalization with overlap

---- Real-time Memory Report at c_bands before calling an iterative solver
           254 MiB given to the printing process from OS
             0 MiB allocation reported by mallinfo(arena+hblkhd)
         61887 MiB available memory on the node where the printing process lives
------------------
     ethr =  1.43E-08,  avg # of iterations =  4.0

     negative rho (up, down):  4.358E-03 0.000E+00

     add environment contribution to local potential
     Polarization accuracy = 8.4E-12, # of iterations =  18

     total cpu time spent up to now is      103.0 secs

     total energy              =    -186.00282793 Ry
     estimated scf accuracy    <       0.00000376 Ry
     electrostatic embedding   =       0.08304193 Ry
     electrolyte free energy   =      -0.02010298 Ry
     correction to one-el term =       1.14957448 Ry

     iteration # 10     ecut=    20.00 Ry     beta= 0.70
     Davidson diagonalization with overlap

---- Real-time Memory Report at c_bands before calling an iterative solver
           254 MiB given to the printing process from OS
             0 MiB allocation reported by mallinfo(arena+hblkhd)
         61886 MiB available memory on the node where the printing process lives
------------------
     ethr =  1.43E-08,  avg # of iterations =  4.0

     negative rho (up, down):  4.433E-03 0.000E+00

     add environment contribution to local potential
     Polarization accuracy = 7.0E-12, # of iterations =  14

     total cpu time spent up to now is      105.2 secs

     total energy              =    -186.00282714 Ry
     estimated scf accuracy    <       0.00001085 Ry
     electrostatic embedding   =       0.08315991 Ry
     electrolyte free energy   =      -0.02010680 Ry
     correction to one-el term =       1.16078407 Ry

     iteration # 11     ecut=    20.00 Ry     beta= 0.70
     Davidson diagonalization with overlap

---- Real-time Memory Report at c_bands before calling an iterative solver
           254 MiB given to the printing process from OS
             0 MiB allocation reported by mallinfo(arena+hblkhd)
         61886 MiB available memory on the node where the printing process lives
------------------
     ethr =  1.43E-08,  avg # of iterations =  3.0

     negative rho (up, down):  4.429E-03 0.000E+00

     add environment contribution to local potential
     Polarization accuracy = 6.7E-12, # of iterations =  12

     total cpu time spent up to now is      107.6 secs

     total energy              =    -186.00280149 Ry
     estimated scf accuracy    <       0.00000008 Ry
     electrostatic embedding   =       0.08313406 Ry
     electrolyte free energy   =      -0.02010921 Ry
     correction to one-el term =       1.15529538 Ry

     iteration # 12     ecut=    20.00 Ry     beta= 0.70
     Davidson diagonalization with overlap

---- Real-time Memory Report at c_bands before calling an iterative solver
           254 MiB given to the printing process from OS
             0 MiB allocation reported by mallinfo(arena+hblkhd)
         61886 MiB available memory on the node where the printing process lives
------------------
     ethr =  4.85E-10,  avg # of iterations =  4.0

     negative rho (up, down):  4.433E-03 0.000E+00

     add environment contribution to local potential
     Polarization accuracy = 8.4E-12, # of iterations =  13

     total cpu time spent up to now is      110.1 secs

     total energy              =    -186.00279776 Ry
     estimated scf accuracy    <       0.00000019 Ry
     electrostatic embedding   =       0.08320581 Ry
     electrolyte free energy   =      -0.02011160 Ry
     correction to one-el term =       1.16030177 Ry

     iteration # 13     ecut=    20.00 Ry     beta= 0.70
     Davidson diagonalization with overlap

---- Real-time Memory Report at c_bands before calling an iterative solver
           254 MiB given to the printing process from OS
             0 MiB allocation reported by mallinfo(arena+hblkhd)
         61886 MiB available memory on the node where the printing process lives
------------------
     ethr =  4.85E-10,  avg # of iterations =  2.0

     negative rho (up, down):  4.433E-03 0.000E+00

     add environment contribution to local potential
     Polarization accuracy = 4.9E-12, # of iterations =  11

     total cpu time spent up to now is      112.2 secs

     total energy              =    -186.00279398 Ry
     estimated scf accuracy    <       0.00000008 Ry
     electrostatic embedding   =       0.08322234 Ry
     electrolyte free energy   =      -0.02011262 Ry
     correction to one-el term =       1.16069823 Ry

     iteration # 14     ecut=    20.00 Ry     beta= 0.70
     Davidson diagonalization with overlap

---- Real-time Memory Report at c_bands before calling an iterative solver
           254 MiB given to the printing process from OS
             0 MiB allocation reported by mallinfo(arena+hblkhd)
         61886 MiB available memory on the node where the printing process lives
------------------
     ethr =  4.85E-10,  avg # of iterations =  1.0

     negative rho (up, down):  4.433E-03 0.000E+00

     add environment contribution to local potential
     Polarization accuracy = 7.5E-12, # of iterations =  13

     total cpu time spent up to now is      114.6 secs

     total energy              =    -186.00279560 Ry
     estimated scf accuracy    <       0.00000006 Ry
     electrostatic embedding   =       0.08322943 Ry
     electrolyte free energy   =      -0.02011237 Ry
     correction to one-el term =       1.16116594 Ry

     iteration # 15     ecut=    20.00 Ry     beta= 0.70
     Davidson diagonalization with overlap

---- Real-time Memory Report at c_bands before calling an iterative solver
           254 MiB given to the printing process from OS
             0 MiB allocation reported by mallinfo(arena+hblkhd)
         61886 MiB available memory on the node where the printing process lives
------------------
     ethr =  3.88E-10,  avg # of iterations =  2.0

     negative rho (up, down):  4.429E-03 0.000E+00

     add environment contribution to local potential
     Polarization accuracy = 6.4E-12, # of iterations =  14

     total cpu time spent up to now is      116.9 secs

     total energy              =    -186.00279741 Ry
     estimated scf accuracy    <       0.00000007 Ry
     electrostatic embedding   =       0.08326002 Ry
     electrolyte free energy   =      -0.02011267 Ry
     correction to one-el term =       1.16298294 Ry

     iteration # 16     ecut=    20.00 Ry     beta= 0.70
     Davidson diagonalization with overlap

---- Real-time Memory Report at c_bands before calling an iterative solver
           254 MiB given to the printing process from OS
             0 MiB allocation reported by mallinfo(arena+hblkhd)
         61887 MiB available memory on the node where the printing process lives
------------------
     ethr =  3.88E-10,  avg # of iterations =  4.0

     negative rho (up, down):  4.432E-03 0.000E+00

     add environment contribution to local potential
     Polarization accuracy = 6.4E-12, # of iterations =  10

     total cpu time spent up to now is      119.1 secs

     total energy              =    -186.00280035 Ry
     estimated scf accuracy    <       0.00000003 Ry
     electrostatic embedding   =       0.08330567 Ry
     electrolyte free energy   =      -0.02011293 Ry
     correction to one-el term =       1.16553876 Ry

     iteration # 17     ecut=    20.00 Ry     beta= 0.70
     Davidson diagonalization with overlap

---- Real-time Memory Report at c_bands before calling an iterative solver
           254 MiB given to the printing process from OS
             0 MiB allocation reported by mallinfo(arena+hblkhd)
         61887 MiB available memory on the node where the printing process lives
------------------
     ethr =  1.95E-10,  avg # of iterations =  2.0

     negative rho (up, down):  4.435E-03 0.000E+00

     add environment contribution to local potential
     Polarization accuracy = 9.2E-12, # of iterations =  10

     total cpu time spent up to now is      121.4 secs

     total energy              =    -186.00279835 Ry
     estimated scf accuracy    <       0.00000001 Ry
     electrostatic embedding   =       0.08329751 Ry
     electrolyte free energy   =      -0.02011312 Ry
     correction to one-el term =       1.16499222 Ry

     iteration # 18     ecut=    20.00 Ry     beta= 0.70
     Davidson diagonalization with overlap

---- Real-time Memory Report at c_bands before calling an iterative solver
           254 MiB given to the printing process from OS
             0 MiB allocation reported by mallinfo(arena+hblkhd)
         61887 MiB available memory on the node where the printing process lives
------------------
     ethr =  9.18E-11,  avg # of iterations =  2.0

     negative rho (up, down):  3.302E-03 0.000E+00

     the potential shift due to the Gaussian-smeared nuclei is    -0.1033 ev

     total cpu time spent up to now is      122.9 secs

     End of self-consistent calculation

          k = 0.0000 0.0000 0.0000 (  5049 PWs)   bands (ev):

   -16.8010 -14.5618 -11.3191  -7.9050  -7.8651  -7.4221  -6.4708  -5.3524
    -4.7473  -4.1844  -4.0309  -2.9670

     occupation numbers 
     1.0000   1.0000   1.0000   1.0000   1.0000   1.0000   1.0000   1.0000
     0.0000   0.0000   0.0000   0.0000

     the Fermi energy is    -5.3426 ev

     WARNING: integrated charge=    16.00000000, expected=    15.99650000

!    total energy              =    -186.00279892 Ry

     total all-electron energy =     -2319.386259 Ry
     estimated scf accuracy    <          6.9E-09 Ry
     smearing contrib. (-TS)   =       0.00000000 Ry
     internal energy E=F+TS    =    -186.00279892 Ry

     The total energy is F=E-TS. E is the sum of the following terms:
     one-electron contribution =    -416.44705865 Ry
     hartree contribution      =     209.53155567 Ry
     xc contribution           =     -24.25518205 Ry
     ewald contribution        =     186.30364135 Ry
     one-center paw contrib.   =    -142.36478719 Ry
      -> PAW hartree energy AE =      11.53293585 Ry
      -> PAW hartree energy PS =     -11.48707702 Ry
      -> PAW xc energy AE      =    -163.37988487 Ry
      -> PAW xc energy PS      =      20.96923885 Ry
      -> total E_H with PAW    =     209.57741450 Ry
      -> total E_XC with PAW   =    -166.66582807 Ry
     electrostatic embedding   =       0.08330965 Ry
     electrolyte free energy   =      -0.02011316 Ry
     correction to one-el term =       1.16583547 Ry

     WARNING: you are using the parabolic pbc correction;
              the potential shift above must be added to 
              band and Fermi energies.

     convergence has been achieved in  18 iterations

     negative rho (up, down):  3.302E-03 0.000E+00
     The global environment contribution to forces
     atom    1 type  1   force =     0.00000000    0.00000000   -0.16770188
     atom    2 type  1   force =    -0.00000000   -0.00000000   -0.07212654
     atom    3 type  1   force =    -0.00000000    0.00000000   -0.11340687
     atom    4 type  1   force =     0.00000000   -0.00000000   -0.12635448
 


***************************************************

     Finished Charge convergence step :   1

     DFT Fermi level calculated as    -5.34260700

     Charge trapped in surface states:     0.00350000 e

     Charge Accuracy <     0.00105000

     Difference between bulk and DFT fermi:    -1.95475693

     Now using DFT charge of:      0.00455000

***************************************************
     charge density from previous step

     Check: negative core charge=   -0.000003

     negative rho (up, down):  3.302E-03 0.000E+00
     extrapolated charge   16.00000, renormalised to   15.99545

Environ Warning (1005): wrong integral of erfc function


     add environment contribution to local potential
     Polarization accuracy = 9.5E-12, # of iterations =  18

     Forces acting on atoms (cartesian axes, Ry/au):

     atom    1 type  1   force =     0.00000000    0.00000000    0.01035844
     atom    2 type  1   force =     0.00000000    0.00000000   -0.01035844
     atom    3 type  1   force =     0.00000000    0.00000000    0.00139842
     atom    4 type  1   force =     0.00000000    0.00000000   -0.00139842
     The non-local contrib.  to forces
     atom    1 type  1   force =     0.00000000    0.00000000   -0.04196708
     atom    2 type  1   force =     0.00000000    0.00000000    0.04196708
     atom    3 type  1   force =     0.00000000    0.00000000   -0.05654651
     atom    4 type  1   force =     0.00000000    0.00000000    0.05654651
     The ionic contribution  to forces
     atom    1 type  1   force =    -0.00000000   -0.00000000    8.79312658
     atom    2 type  1   force =    -0.00000000   -0.00000000   -8.79312658
     atom    3 type  1   force =     0.00000000    0.00000000   -2.98930598
     atom    4 type  1   force =    -0.00000000    0.00000000    2.98930598
     The local contribution  to forces
     atom    1 type  1   force =     0.00000000   -0.00000000   -8.69547277
     atom    2 type  1   force =     0.00000000   -0.00000000    8.69547277
     atom    3 type  1   force =    -0.00000000    0.00000000    3.03510438
     atom    4 type  1   force =     0.00000000   -0.00000000   -3.03510438
     The core correction contribution to forces
     atom    1 type  1   force =     0.00000000    0.00000000    0.00238059
     atom    2 type  1   force =     0.00000000    0.00000000   -0.00238059
     atom    3 type  1   force =    -0.00000000   -0.00000000    0.00569505
     atom    4 type  1   force =     0.00000000   -0.00000000   -0.00569505
     The Hubbard contrib.    to forces
     atom    1 type  1   force =     0.00000000    0.00000000    0.00000000
     atom    2 type  1   force =     0.00000000    0.00000000    0.00000000
     atom    3 type  1   force =     0.00000000    0.00000000    0.00000000
     atom    4 type  1   force =     0.00000000    0.00000000    0.00000000
     The SCF correction term to forces
     atom    1 type  1   force =     0.00000000    0.00000000    0.00007879
     atom    2 type  1   force =    -0.00000000   -0.00000000   -0.00007879
     atom    3 type  1   force =    -0.00000000   -0.00000000   -0.00002232
     atom    4 type  1   force =     0.00000000    0.00000000    0.00002232

     Total force =     0.014782     Total SCF correction =     0.000116

     total cpu time spent up to now is      125.7 secs

     Self-consistent Calculation

     iteration #  1     ecut=    20.00 Ry     beta= 0.70
     Davidson diagonalization with overlap

---- Real-time Memory Report at c_bands before calling an iterative solver
           254 MiB given to the printing process from OS
             0 MiB allocation reported by mallinfo(arena+hblkhd)
         61898 MiB available memory on the node where the printing process lives
------------------
     ethr =  1.00E-06,  avg # of iterations =  1.0

     Threshold (ethr) on eigenvalues was too large:
     Diagonalizing with lowered threshold

     Davidson diagonalization with overlap

---- Real-time Memory Report at c_bands before calling an iterative solver
           254 MiB given to the printing process from OS
             0 MiB allocation reported by mallinfo(arena+hblkhd)
         61898 MiB available memory on the node where the printing process lives
------------------
     ethr =  8.47E-08,  avg # of iterations =  2.0

     negative rho (up, down):  3.434E-03 0.000E+00

     add environment contribution to local potential
     Polarization accuracy = 1.0E-11, # of iterations =  16

     total cpu time spent up to now is      128.2 secs

     total energy              =    -186.06727797 Ry
     estimated scf accuracy    <       0.00001284 Ry
     electrostatic embedding   =       0.00324129 Ry
     electrolyte free energy   =      -0.00469294 Ry
     correction to one-el term =       1.09054739 Ry

     iteration #  2     ecut=    20.00 Ry     beta= 0.70
     Davidson diagonalization with overlap

---- Real-time Memory Report at c_bands before calling an iterative solver
           254 MiB given to the printing process from OS
             0 MiB allocation reported by mallinfo(arena+hblkhd)
         61896 MiB available memory on the node where the printing process lives
------------------
     ethr =  8.03E-08,  avg # of iterations =  3.0

     negative rho (up, down):  3.430E-03 0.000E+00

     add environment contribution to local potential
     Polarization accuracy = 5.5E-12, # of iterations =  10

     total cpu time spent up to now is      130.3 secs

     total energy              =    -186.06735687 Ry
     estimated scf accuracy    <       0.00006536 Ry
     electrostatic embedding   =       0.00304381 Ry
     electrolyte free energy   =      -0.00467005 Ry
     correction to one-el term =       1.08735658 Ry

     iteration #  3     ecut=    20.00 Ry     beta= 0.70
     Davidson diagonalization with overlap

---- Real-time Memory Report at c_bands before calling an iterative solver
           254 MiB given to the printing process from OS
             0 MiB allocation reported by mallinfo(arena+hblkhd)
         61895 MiB available memory on the node where the printing process lives
------------------
     ethr =  8.03E-08,  avg # of iterations =  1.0

     negative rho (up, down):  3.410E-03 0.000E+00

     add environment contribution to local potential
     Polarization accuracy = 5.0E-12, # of iterations =  15

     total cpu time spent up to now is      132.4 secs

     total energy              =    -186.06737328 Ry
     estimated scf accuracy    <       0.00007296 Ry
     electrostatic embedding   =       0.00302773 Ry
     electrolyte free energy   =      -0.00466674 Ry
     correction to one-el term =       1.08758077 Ry

     iteration #  4     ecut=    20.00 Ry     beta= 0.70
     Davidson diagonalization with overlap

---- Real-time Memory Report at c_bands before calling an iterative solver
           254 MiB given to the printing process from OS
             0 MiB allocation reported by mallinfo(arena+hblkhd)
         61894 MiB available memory on the node where the printing process lives
------------------
     ethr =  8.03E-08,  avg # of iterations =  1.0

     negative rho (up, down):  3.581E-03 0.000E+00

     add environment contribution to local potential
     Polarization accuracy = 6.4E-12, # of iterations =  19

     total cpu time spent up to now is      135.2 secs

     total energy              =    -186.06736478 Ry
     estimated scf accuracy    <       0.00008690 Ry
     electrostatic embedding   =       0.00300296 Ry
     electrolyte free energy   =      -0.00466449 Ry
     correction to one-el term =       1.08673432 Ry

     iteration #  5     ecut=    20.00 Ry     beta= 0.70
     Davidson diagonalization with overlap

---- Real-time Memory Report at c_bands before calling an iterative solver
           254 MiB given to the printing process from OS
             0 MiB allocation reported by mallinfo(arena+hblkhd)
         61892 MiB available memory on the node where the printing process lives
------------------
     ethr =  8.03E-08,  avg # of iterations =  3.0

     negative rho (up, down):  4.026E-03 0.000E+00

     add environment contribution to local potential
     Polarization accuracy = 7.2E-12, # of iterations =  22

     total cpu time spent up to now is      137.7 secs

     total energy              =    -186.06731892 Ry
     estimated scf accuracy    <       0.00002281 Ry
     electrostatic embedding   =       0.00298930 Ry
     electrolyte free energy   =      -0.00466491 Ry
     correction to one-el term =       1.08378876 Ry

     iteration #  6     ecut=    20.00 Ry     beta= 0.70
     Davidson diagonalization with overlap

---- Real-time Memory Report at c_bands before calling an iterative solver
           254 MiB given to the printing process from OS
             0 MiB allocation reported by mallinfo(arena+hblkhd)
         61891 MiB available memory on the node where the printing process lives
------------------
     ethr =  8.03E-08,  avg # of iterations =  4.0

     negative rho (up, down):  4.408E-03 0.000E+00

     add environment contribution to local potential
     Polarization accuracy = 6.1E-12, # of iterations =  20

     total cpu time spent up to now is      140.3 secs

     total energy              =    -186.06729254 Ry
     estimated scf accuracy    <       0.00005734 Ry
     electrostatic embedding   =       0.00312449 Ry
     electrolyte free energy   =      -0.00466437 Ry
     correction to one-el term =       1.10169272 Ry

     iteration #  7     ecut=    20.00 Ry     beta= 0.70
     Davidson diagonalization with overlap

---- Real-time Memory Report at c_bands before calling an iterative solver
           254 MiB given to the printing process from OS
             0 MiB allocation reported by mallinfo(arena+hblkhd)
         61890 MiB available memory on the node where the printing process lives
------------------
     ethr =  8.03E-08,  avg # of iterations =  3.0

     negative rho (up, down):  4.590E-03 0.000E+00

     add environment contribution to local potential
     Polarization accuracy = 5.7E-12, # of iterations =  20

     total cpu time spent up to now is      142.7 secs

     total energy              =    -186.06726260 Ry
     estimated scf accuracy    <       0.00010815 Ry
     electrostatic embedding   =       0.00305936 Ry
     electrolyte free energy   =      -0.00466449 Ry
     correction to one-el term =       1.10626169 Ry

     iteration #  8     ecut=    20.00 Ry     beta= 0.70
     Davidson diagonalization with overlap

---- Real-time Memory Report at c_bands before calling an iterative solver
           254 MiB given to the printing process from OS
             0 MiB allocation reported by mallinfo(arena+hblkhd)
         61889 MiB available memory on the node where the printing process lives
------------------
     ethr =  8.03E-08,  avg # of iterations =  4.0

     negative rho (up, down):  4.743E-03 0.000E+00

     add environment contribution to local potential
     Polarization accuracy = 4.8E-12, # of iterations =  17

     total cpu time spent up to now is      144.9 secs

     total energy              =    -186.06729012 Ry
     estimated scf accuracy    <       0.00002407 Ry
     electrostatic embedding   =       0.00299977 Ry
     electrolyte free energy   =      -0.00466444 Ry
     correction to one-el term =       1.11374504 Ry

     iteration #  9     ecut=    20.00 Ry     beta= 0.70
     Davidson diagonalization with overlap

---- Real-time Memory Report at c_bands before calling an iterative solver
           254 MiB given to the printing process from OS
             0 MiB allocation reported by mallinfo(arena+hblkhd)
         61887 MiB available memory on the node where the printing process lives
------------------
     ethr =  8.03E-08,  avg # of iterations =  3.0

     negative rho (up, down):  4.730E-03 0.000E+00

     add environment contribution to local potential
     Polarization accuracy = 7.9E-12, # of iterations =  18

     total cpu time spent up to now is      147.4 secs

     total energy              =    -186.06730279 Ry
     estimated scf accuracy    <       0.00000064 Ry
     electrostatic embedding   =       0.00312762 Ry
     electrolyte free energy   =      -0.00466473 Ry
     correction to one-el term =       1.13846374 Ry

     iteration # 10     ecut=    20.00 Ry     beta= 0.70
     Davidson diagonalization with overlap

---- Real-time Memory Report at c_bands before calling an iterative solver
           254 MiB given to the printing process from OS
             0 MiB allocation reported by mallinfo(arena+hblkhd)
         61887 MiB available memory on the node where the printing process lives
------------------
     ethr =  4.02E-09,  avg # of iterations =  6.0

     negative rho (up, down):  4.765E-03 0.000E+00

     add environment contribution to local potential
     Polarization accuracy = 5.0E-12, # of iterations =  16

     total cpu time spent up to now is      150.3 secs

     total energy              =    -186.06732608 Ry
     estimated scf accuracy    <       0.00001721 Ry
     electrostatic embedding   =       0.00320049 Ry
     electrolyte free energy   =      -0.00466449 Ry
     correction to one-el term =       1.14973970 Ry

     iteration # 11     ecut=    20.00 Ry     beta= 0.70
     Davidson diagonalization with overlap

---- Real-time Memory Report at c_bands before calling an iterative solver
           254 MiB given to the printing process from OS
             0 MiB allocation reported by mallinfo(arena+hblkhd)
         61886 MiB available memory on the node where the printing process lives
------------------
     ethr =  4.02E-09,  avg # of iterations =  5.0

     negative rho (up, down):  4.817E-03 0.000E+00

     add environment contribution to local potential
     Polarization accuracy = 8.7E-12, # of iterations =  16

     total cpu time spent up to now is      152.6 secs

     total energy              =    -186.06732424 Ry
     estimated scf accuracy    <       0.00000039 Ry
     electrostatic embedding   =       0.00324406 Ry
     electrolyte free energy   =      -0.00466448 Ry
     correction to one-el term =       1.14953953 Ry

     iteration # 12     ecut=    20.00 Ry     beta= 0.70
     Davidson diagonalization with overlap

---- Real-time Memory Report at c_bands before calling an iterative solver
           254 MiB given to the printing process from OS
             0 MiB allocation reported by mallinfo(arena+hblkhd)
[...]

     total energy              =    -186.07189034 Ry
     estimated scf accuracy    <       0.00002696 Ry
     electrostatic embedding   =      -0.00292493 Ry
     electrolyte free energy   =      -0.00334155 Ry
     correction to one-el term =       1.11315615 Ry

     iteration #  9     ecut=    20.00 Ry     beta= 0.70
     Davidson diagonalization with overlap

---- Real-time Memory Report at c_bands before calling an iterative solver
           262 MiB given to the printing process from OS
             0 MiB allocation reported by mallinfo(arena+hblkhd)
         61880 MiB available memory on the node where the printing process lives
------------------
     ethr =  9.06E-08,  avg # of iterations =  4.0

     negative rho (up, down):  4.874E-03 0.000E+00

     add environment contribution to local potential
     Polarization accuracy = 8.4E-12, # of iterations =  19

     total cpu time spent up to now is      391.1 secs

     total energy              =    -186.07191868 Ry
     estimated scf accuracy    <       0.00000487 Ry
     electrostatic embedding   =      -0.00282528 Ry
     electrolyte free energy   =      -0.00334132 Ry
     correction to one-el term =       1.13417955 Ry

     iteration # 10     ecut=    20.00 Ry     beta= 0.70
     Davidson diagonalization with overlap

---- Real-time Memory Report at c_bands before calling an iterative solver
           263 MiB given to the printing process from OS
             0 MiB allocation reported by mallinfo(arena+hblkhd)
         61879 MiB available memory on the node where the printing process lives
------------------
     ethr =  3.04E-08,  avg # of iterations =  4.0

     negative rho (up, down):  4.944E-03 0.000E+00

     add environment contribution to local potential
     Polarization accuracy = 9.8E-12, # of iterations =  18

     total cpu time spent up to now is      393.6 secs

     total energy              =    -186.07193709 Ry
     estimated scf accuracy    <       0.00001049 Ry
     electrostatic embedding   =      -0.00274604 Ry
     electrolyte free energy   =      -0.00334103 Ry
     correction to one-el term =       1.14498314 Ry

     iteration # 11     ecut=    20.00 Ry     beta= 0.70
     Davidson diagonalization with overlap

---- Real-time Memory Report at c_bands before calling an iterative solver
           264 MiB given to the printing process from OS
             0 MiB allocation reported by mallinfo(arena+hblkhd)
         61879 MiB available memory on the node where the printing process lives
------------------
     ethr =  3.04E-08,  avg # of iterations =  2.0

     negative rho (up, down):  4.950E-03 0.000E+00

     add environment contribution to local potential
     Polarization accuracy = 4.1E-12, # of iterations =  16

     total cpu time spent up to now is      396.1 secs

     total energy              =    -186.07193716 Ry
     estimated scf accuracy    <       0.00000224 Ry
     electrostatic embedding   =      -0.00272335 Ry
     electrolyte free energy   =      -0.00334069 Ry
     correction to one-el term =       1.14639727 Ry

     iteration # 12     ecut=    20.00 Ry     beta= 0.70
     Davidson diagonalization with overlap

---- Real-time Memory Report at c_bands before calling an iterative solver
           264 MiB given to the printing process from OS
             0 MiB allocation reported by mallinfo(arena+hblkhd)
         61879 MiB available memory on the node where the printing process lives
------------------
     ethr =  1.40E-08,  avg # of iterations =  4.0

     negative rho (up, down):  4.959E-03 0.000E+00

     add environment contribution to local potential
     Polarization accuracy = 5.1E-12, # of iterations =  13

     total cpu time spent up to now is      398.4 secs

     total energy              =    -186.07194663 Ry
     estimated scf accuracy    <       0.00000068 Ry
     electrostatic embedding   =      -0.00264299 Ry
     electrolyte free energy   =      -0.00334029 Ry
     correction to one-el term =       1.15101143 Ry

     iteration # 13     ecut=    20.00 Ry     beta= 0.70
     Davidson diagonalization with overlap

---- Real-time Memory Report at c_bands before calling an iterative solver
           264 MiB given to the printing process from OS
             0 MiB allocation reported by mallinfo(arena+hblkhd)
         61879 MiB available memory on the node where the printing process lives
------------------
     ethr =  4.27E-09,  avg # of iterations =  1.0

     negative rho (up, down):  4.958E-03 0.000E+00

     add environment contribution to local potential
     Polarization accuracy = 5.3E-12, # of iterations =  15

     total cpu time spent up to now is      400.6 secs

     total energy              =    -186.07194981 Ry
     estimated scf accuracy    <       0.00000022 Ry
     electrostatic embedding   =      -0.00262477 Ry
     electrolyte free energy   =      -0.00334022 Ry
     correction to one-el term =       1.15283910 Ry

     iteration # 14     ecut=    20.00 Ry     beta= 0.70
     Davidson diagonalization with overlap

---- Real-time Memory Report at c_bands before calling an iterative solver
           264 MiB given to the printing process from OS
             0 MiB allocation reported by mallinfo(arena+hblkhd)
         61879 MiB available memory on the node where the printing process lives
------------------
     ethr =  1.37E-09,  avg # of iterations =  4.0

     negative rho (up, down):  4.958E-03 0.000E+00

     add environment contribution to local potential
     Polarization accuracy = 9.0E-12, # of iterations =   9

     total cpu time spent up to now is      402.7 secs

     total energy              =    -186.07195613 Ry
     estimated scf accuracy    <       0.00000029 Ry
     electrostatic embedding   =      -0.00258800 Ry
     electrolyte free energy   =      -0.00334020 Ry
     correction to one-el term =       1.15582269 Ry

     iteration # 15     ecut=    20.00 Ry     beta= 0.70
     Davidson diagonalization with overlap

---- Real-time Memory Report at c_bands before calling an iterative solver
           264 MiB given to the printing process from OS
             0 MiB allocation reported by mallinfo(arena+hblkhd)
         61879 MiB available memory on the node where the printing process lives
------------------
     ethr =  1.37E-09,  avg # of iterations =  1.0

     negative rho (up, down):  4.954E-03 0.000E+00

     add environment contribution to local potential
     Polarization accuracy = 6.3E-12, # of iterations =  14

     total cpu time spent up to now is      404.8 secs

     total energy              =    -186.07195616 Ry
     estimated scf accuracy    <       0.00000027 Ry
     electrostatic embedding   =      -0.00258160 Ry
     electrolyte free energy   =      -0.00334016 Ry
     correction to one-el term =       1.15620211 Ry

     iteration # 16     ecut=    20.00 Ry     beta= 0.70
     Davidson diagonalization with overlap

---- Real-time Memory Report at c_bands before calling an iterative solver
           264 MiB given to the printing process from OS
             0 MiB allocation reported by mallinfo(arena+hblkhd)
         61879 MiB available memory on the node where the printing process lives
------------------
     ethr =  1.37E-09,  avg # of iterations =  2.0

     negative rho (up, down):  4.952E-03 0.000E+00

     add environment contribution to local potential
     Polarization accuracy = 6.6E-12, # of iterations =  15

     total cpu time spent up to now is      407.5 secs

     total energy              =    -186.07195950 Ry
     estimated scf accuracy    <       0.00000002 Ry
     electrostatic embedding   =      -0.00254615 Ry
     electrolyte free energy   =      -0.00334016 Ry
     correction to one-el term =       1.15797723 Ry

     iteration # 17     ecut=    20.00 Ry     beta= 0.70
     Davidson diagonalization with overlap

---- Real-time Memory Report at c_bands before calling an iterative solver
           264 MiB given to the printing process from OS
             0 MiB allocation reported by mallinfo(arena+hblkhd)
         61879 MiB available memory on the node where the printing process lives
------------------
     ethr =  9.49E-11,  avg # of iterations =  6.0

     negative rho (up, down):  4.953E-03 0.000E+00

     add environment contribution to local potential
     Polarization accuracy = 8.8E-12, # of iterations =  12

     total cpu time spent up to now is      410.5 secs

     total energy              =    -186.07196549 Ry
     estimated scf accuracy    <       0.00000004 Ry
     electrostatic embedding   =      -0.00248805 Ry
     electrolyte free energy   =      -0.00334017 Ry
     correction to one-el term =       1.16145937 Ry

     iteration # 18     ecut=    20.00 Ry     beta= 0.70
     Davidson diagonalization with overlap

---- Real-time Memory Report at c_bands before calling an iterative solver
           264 MiB given to the printing process from OS
             0 MiB allocation reported by mallinfo(arena+hblkhd)
         61879 MiB available memory on the node where the printing process lives
------------------
     ethr =  9.49E-11,  avg # of iterations =  3.0

     negative rho (up, down):  4.949E-03 0.000E+00

     add environment contribution to local potential
     Polarization accuracy = 9.7E-12, # of iterations =  13

     total cpu time spent up to now is      412.7 secs

     total energy              =    -186.07196715 Ry
     estimated scf accuracy    <       0.00000004 Ry
     electrostatic embedding   =      -0.00246799 Ry
     electrolyte free energy   =      -0.00334014 Ry
     correction to one-el term =       1.16263648 Ry

     iteration # 19     ecut=    20.00 Ry     beta= 0.70
     Davidson diagonalization with overlap

---- Real-time Memory Report at c_bands before calling an iterative solver
           264 MiB given to the printing process from OS
             0 MiB allocation reported by mallinfo(arena+hblkhd)
         61879 MiB available memory on the node where the printing process lives
------------------
     ethr =  9.49E-11,  avg # of iterations =  5.0

     negative rho (up, down):  4.949E-03 0.000E+00

     add environment contribution to local potential
     Polarization accuracy = 5.9E-12, # of iterations =   7

     total cpu time spent up to now is      414.9 secs

     total energy              =    -186.07197054 Ry
     estimated scf accuracy    <       0.00000007 Ry
     electrostatic embedding   =      -0.00243422 Ry
     electrolyte free energy   =      -0.00334022 Ry
     correction to one-el term =       1.16471873 Ry

     iteration # 20     ecut=    20.00 Ry     beta= 0.70
     Davidson diagonalization with overlap

---- Real-time Memory Report at c_bands before calling an iterative solver
           264 MiB given to the printing process from OS
             0 MiB allocation reported by mallinfo(arena+hblkhd)
         61879 MiB available memory on the node where the printing process lives
------------------
     ethr =  9.49E-11,  avg # of iterations =  3.0

     negative rho (up, down):  3.302E-03 0.000E+00

     the potential shift due to the Gaussian-smeared nuclei is    -0.1033 ev

     total cpu time spent up to now is      416.4 secs

     End of self-consistent calculation

          k = 0.0000 0.0000 0.0000 (  5049 PWs)   bands (ev):

   -16.7991 -14.5598 -11.3172  -7.9031  -7.8632  -7.4201  -6.4689  -5.3504
    -4.7453  -4.1823  -4.0290  -2.9650

     occupation numbers 
     1.0000   1.0000   1.0000   1.0000   1.0000   1.0000   1.0000   1.0000
     0.0000   0.0000   0.0000   0.0000

     the Fermi energy is    -5.3406 ev

     WARNING: integrated charge=    16.00000000, expected=    15.99508211

!    total energy              =    -186.07197047 Ry

     total all-electron energy =     -2319.455430 Ry
     estimated scf accuracy    <          8.5E-10 Ry
     smearing contrib. (-TS)   =       0.00000000 Ry
     internal energy E=F+TS    =    -186.07197047 Ry

     The total energy is F=E-TS. E is the sum of the following terms:
     one-electron contribution =    -416.44672315 Ry
     hartree contribution      =     209.53212632 Ry
     xc contribution           =     -24.25526600 Ry
     ewald contribution        =     186.30364135 Ry
     one-center paw contrib.   =    -142.36480381 Ry
      -> PAW hartree energy AE =      11.53323683 Ry
      -> PAW hartree energy PS =     -11.48737658 Ry
      -> PAW xc energy AE      =    -163.38001630 Ry
      -> PAW xc energy PS      =      20.96935224 Ry
      -> total E_H with PAW    =     209.57798658 Ry
      -> total E_XC with PAW   =    -166.66593006 Ry
     electrostatic embedding   =      -0.00243078 Ry
     electrolyte free energy   =      -0.00334020 Ry
     correction to one-el term =       1.16482580 Ry

     WARNING: you are using the parabolic pbc correction;
              the potential shift above must be added to 
              band and Fermi energies.

     convergence has been achieved in  20 iterations

     negative rho (up, down):  3.302E-03 0.000E+00
     The global environment contribution to forces
     atom    1 type  1   force =     0.00000000   -0.00000000   -0.06258483
     atom    2 type  1   force =    -0.00000000    0.00000000    0.03320892
     atom    3 type  1   force =    -0.00000000   -0.00000000   -0.00817090
     atom    4 type  1   force =     0.00000000    0.00000000   -0.02115426
 


***************************************************

     Finished charge convergence step :   7

     Convergence of charge with accuracy <     0.00000558 e

     Charge trapped in surface states:     0.00491789

     Difference between bulk and DFT fermi:    -0.00087822

     Final Potential:    -0.27624523 V

     Output written to q-v.dat       

***************************************************

     Forces acting on atoms (cartesian axes, Ry/au):

     atom    1 type  1   force =     0.00000000    0.00000000    0.01017885
     atom    2 type  1   force =     0.00000000    0.00000000   -0.01017885
     atom    3 type  1   force =     0.00000000    0.00000000    0.00145569
     atom    4 type  1   force =     0.00000000    0.00000000   -0.00145569
     The non-local contrib.  to forces
     atom    1 type  1   force =     0.00000000    0.00000000   -0.04201698
     atom    2 type  1   force =     0.00000000    0.00000000    0.04201698
     atom    3 type  1   force =     0.00000000    0.00000000   -0.05655540
     atom    4 type  1   force =     0.00000000    0.00000000    0.05655540
     The ionic contribution  to forces
     atom    1 type  1   force =    -0.00000000   -0.00000000    8.79312658
     atom    2 type  1   force =    -0.00000000   -0.00000000   -8.79312658
     atom    3 type  1   force =     0.00000000    0.00000000   -2.98930598
     atom    4 type  1   force =    -0.00000000    0.00000000    2.98930598
     The local contribution  to forces
     atom    1 type  1   force =     0.00000000   -0.00000000   -8.69544755
     atom    2 type  1   force =     0.00000000   -0.00000000    8.69544755
     atom    3 type  1   force =    -0.00000000    0.00000000    3.03514214
     atom    4 type  1   force =     0.00000000   -0.00000000   -3.03514214
     The core correction contribution to forces
     atom    1 type  1   force =     0.00000000    0.00000000    0.00238658
     atom    2 type  1   force =     0.00000000    0.00000000   -0.00238658
     atom    3 type  1   force =    -0.00000000   -0.00000000    0.00569601
     atom    4 type  1   force =     0.00000000    0.00000000   -0.00569601
     The Hubbard contrib.    to forces
     atom    1 type  1   force =     0.00000000    0.00000000    0.00000000
     atom    2 type  1   force =     0.00000000    0.00000000    0.00000000
     atom    3 type  1   force =     0.00000000    0.00000000    0.00000000
     atom    4 type  1   force =     0.00000000    0.00000000    0.00000000
     The SCF correction term to forces
     atom    1 type  1   force =     0.00000000   -0.00000000    0.00002709
     atom    2 type  1   force =     0.00000000   -0.00000000   -0.00002709
     atom    3 type  1   force =    -0.00000000    0.00000000   -0.00001276
     atom    4 type  1   force =     0.00000000    0.00000000    0.00001276

     Total force =     0.014542     Total SCF correction =     0.000042

     Writing output data file ./tmp/Si.save/
 
     init_run     :      1.48s CPU      2.00s WALL (       1 calls)
     electrons    :    348.97s CPU    394.46s WALL (       8 calls)
     update_pot   :      4.84s CPU      4.86s WALL (       7 calls)
     forces       :     17.70s CPU     19.60s WALL (       8 calls)

     Called by init_run:
     wfcinit      :      0.07s CPU      0.07s WALL (       1 calls)
     wfcinit:atom :      0.00s CPU      0.00s WALL (       1 calls)
     wfcinit:wfcr :      0.06s CPU      0.07s WALL (       1 calls)
     potinit      :      0.89s CPU      1.19s WALL (       1 calls)
     hinit0       :      0.43s CPU      0.51s WALL (       1 calls)

     Called by electrons:
     c_bands      :     28.51s CPU     28.58s WALL (     176 calls)
     sum_band     :     21.12s CPU     30.71s WALL (     176 calls)
     v_of_rho     :      8.38s CPU      8.41s WALL (     177 calls)
     v_h          :      0.35s CPU      0.35s WALL (     177 calls)
     v_xc         :      8.40s CPU      8.42s WALL (     185 calls)
     newd         :     13.24s CPU     23.00s WALL (     177 calls)
     PAW_pot      :    106.12s CPU    106.14s WALL (     184 calls)
     mix_rho      :     79.07s CPU     79.28s WALL (     176 calls)

     Called by c_bands:
     init_us_2    :      0.84s CPU      0.86s WALL (     360 calls)
     cegterg      :     23.15s CPU     23.21s WALL (     176 calls)

     Called by sum_band:
     sum_band:wei :      0.02s CPU      0.02s WALL (     176 calls)
     sum_band:loo :      4.21s CPU      4.23s WALL (     176 calls)
     sum_band:buf :      0.00s CPU      0.00s WALL (     176 calls)
     sum_band:ini :      0.39s CPU      0.40s WALL (     176 calls)
     sum_band:cal :      0.40s CPU      0.40s WALL (     183 calls)
     sum_band:bec :      0.00s CPU      0.00s WALL (     183 calls)
     addusdens    :     15.44s CPU     24.97s WALL (     176 calls)
     addusd:skk   :      0.12s CPU      0.12s WALL (     176 calls)
     addusd:dgemm :      2.90s CPU     11.00s WALL (     176 calls)
     addusd:qvan2 :      9.55s CPU      9.55s WALL (     176 calls)

     Called by *egterg:
     cdiaghg      :      0.14s CPU      0.14s WALL (     689 calls)
     cegterg:over :      0.49s CPU      0.49s WALL (     527 calls)
     cegterg:upda :      0.30s CPU      0.30s WALL (     527 calls)
     cegterg:last :      0.57s CPU      0.58s WALL (     374 calls)
     h_psi        :     20.07s CPU     20.12s WALL (     704 calls)
     s_psi        :      1.06s CPU      1.07s WALL (     704 calls)
     g_psi        :      0.18s CPU      0.18s WALL (     527 calls)

     Called by h_psi:
     h_psi:calbec :      1.14s CPU      1.15s WALL (     704 calls)
     vloc_psi     :     17.78s CPU     17.82s WALL (     704 calls)
     add_vuspsi   :      1.08s CPU      1.08s WALL (     704 calls)

     General routines
     calbec       :      1.61s CPU      1.62s WALL (     919 calls)
     fft          :      2.99s CPU      3.08s WALL (    2042 calls)
     ffts         :     39.75s CPU     39.83s WALL (   27107 calls)
     fftw         :     19.44s CPU     19.49s WALL (   13334 calls)
 
     Parallel routines

     PAW routines
     PAW_pot      :    106.12s CPU    106.14s WALL (     184 calls)
     PAW_symme    :      0.13s CPU      0.13s WALL (     360 calls)
 
     Environ routines
 
     PWSCF        :   6m 8.26s CPU   6m56.86s WALL

 
   This run was terminated on:   8:58:28  23Mar2022            

=------------------------------------------------------------------------------=
   JOB DONE.
=------------------------------------------------------------------------------=
