
     Program PWSCF v.6.7MaX starts on  3Feb2022 at 10:57: 0 

     This program is part of the open-source Quantum ESPRESSO suite
     for quantum simulation of materials; please cite
         "P. Giannozzi et al., J. Phys.:Condens. Matter 21 395502 (2009);
         "P. Giannozzi et al., J. Phys.:Condens. Matter 29 465901 (2017);
          URL http://www.quantum-espresso.org", 
     in publications or presentations arising from this work. More details at
     http://www.quantum-espresso.org/quote

     Parallel version (MPI), running on     4 processors

     MPI processes distributed on     1 nodes
     R & G space division:  proc/nbgrp/npool/nimage =       4
     Waiting for input...
     Reading input from standard input
Warning: card &CELL ignored
Warning: card / ignored

     Current dimensions of program PWSCF are:
     Max number of different atomic species (ntypx) = 10
     Max number of k-points (npk) =  40000
     Max angular momentum in pseudopotentials (lmaxx) =  3

     Reading input from environ.in:
     * using ionic solvent mode
     * setting boundary derivatives method to SSCS default

     file H.pbe-rrkjus.UPF: wavefunction(s)  1S renormalized
     file O.pbe-rrkjus.UPF: wavefunction(s)  2S renormalized

     Subspace diagonalization in iterative solution of the eigenvalue problem:
     a serial algorithm will be used


     Parallelization info
     --------------------
     sticks:   dense  smooth     PW     G-vecs:    dense   smooth      PW
     Min        2386     952    237               175367    44376    5529
     Max        2388     953    238               175370    44379    5532
     Sum        9549    3809    949               701475   177509   22119



     bravais-lattice index     =            1
     lattice parameter (alat)  =      20.0000  a.u.
     unit-cell volume          =    8000.0000 (a.u.)^3
     number of atoms/cell      =            3
     number of atomic types    =            2
     number of electrons       =         8.00
     number of Kohn-Sham states=            4
     kinetic-energy cutoff     =      30.0000  Ry
     charge density cutoff     =     300.0000  Ry
     scf convergence threshold =      5.0E-09
     mixing beta               =       0.7000
     number of iterations used =            8  plain     mixing
     energy convergence thresh.=      1.0E-04
     force convergence thresh. =      5.0E-03
     Exchange-correlation= SLA  PW   PBE  PBE
                           (   1   4   3   4   0   0   0)
     nstep                     =           50


     ================================================================================

                                  Environ Setup Summary

     ================================================================================

     Please cite
         "O. Andreussi, I. Dabo and N. Marzari, J. Chem. Phys. 136, 064102 (2012)"
     in publications or presentations arising from this work.

     Parameters
     ==========

     compensation onset threshold      =               0.1000E+00
     static permittivity               =                    78.30
     surface tension in input (dyn/cm) =                    50.00
     surface tension in internal units =               0.6423E-04
     external pressure in input (GPa)  =                    -0.35
     external pressure in inter. units =              -0.2379E-04

     Solvent Boundary
     ================

     solvent mode                      =                    ionic
     derivatives method                =                   lowmem
     numerical core for derivatives    =                      fft
     switching function adopted        =                     SCCS
     density limit for vacuum region   =               0.5000E-02
     density limit for bulk solvent    =               0.1000E-03
     soft-sphere radius mode           =                     muff
     soft-sphere softness              =                     0.50
     alpha                             =                     1.12
     interface is field aware
     field aware factor                =                     0.08
     asymmetry of field-awareness      =                    -0.32
     field limit for no correction     =                     2.00
     field limit for full correction   =                     6.00

     Electrostatic Setup
     ===================

     electrostatic problem to solve    =              generalized
     numerical solver adopted          =                       cg
     type of auxiliary density adopted =                     none
     numerical core for poisson        =                      fft
     type of pbc corrections           =                parabolic
     numerical core for corrections    =                      1da

     ================================================================================


     celldm(1)=  20.000000  celldm(2)=   0.000000  celldm(3)=   0.000000
     celldm(4)=   0.000000  celldm(5)=   0.000000  celldm(6)=   0.000000

     crystal axes: (cart. coord. in units of alat)
               a(1) = (   1.000000   0.000000   0.000000 )  
               a(2) = (   0.000000   1.000000   0.000000 )  
               a(3) = (   0.000000   0.000000   1.000000 )  

     reciprocal axes: (cart. coord. in units 2 pi/alat)
               b(1) = (  1.000000  0.000000  0.000000 )  
               b(2) = (  0.000000  1.000000  0.000000 )  
               b(3) = (  0.000000  0.000000  1.000000 )  


     PseudoPot. # 1 for H  read from file:
     /home/mat/q-e/pseudo/H.pbe-rrkjus.UPF
     MD5 check sum: 2d52a7f45632fd764c17cc6affed14c8
     Pseudo is Ultrasoft, Zval =  1.0
     Generated by new atomic code, or converted to UPF format
     Using radial grid of 1061 points,  2 beta functions with: 
                l(1) =   0
                l(2) =   0
     Q(r) pseudized with 0 coefficients 


     PseudoPot. # 2 for O  read from file:
     /home/mat/q-e/pseudo/O.pbe-rrkjus.UPF
     MD5 check sum: fadcf19ee70a498d3030e2e79cf929a4
     Pseudo is Ultrasoft, Zval =  6.0
     Generated by new atomic code, or converted to UPF format
     Using radial grid of 1269 points,  4 beta functions with: 
                l(1) =   0
                l(2) =   0
                l(3) =   1
                l(4) =   1
     Q(r) pseudized with 0 coefficients 


     atomic species   valence    mass     pseudopotential
        H              1.00     1.00800     H ( 1.00)
        O              6.00    15.99900     O ( 1.00)

      2 Sym. Ops. (no inversion) found


                                    s                        frac. trans.

      isym =  1     identity                                     

 cryst.   s( 1) = (     1          0          0      )
                  (     0          1          0      )
                  (     0          0          1      )

 cart.    s( 1) = (  1.0000000  0.0000000  0.0000000 )
                  (  0.0000000  1.0000000  0.0000000 )
                  (  0.0000000  0.0000000  1.0000000 )


      isym =  2     inv. 180 deg rotation - cart. axis [0,0,1]   

 cryst.   s( 2) = (     1          0          0      )
                  (     0          1          0      )
                  (     0          0         -1      )

 cart.    s( 2) = (  1.0000000  0.0000000  0.0000000 )
                  (  0.0000000  1.0000000  0.0000000 )
                  (  0.0000000  0.0000000 -1.0000000 )


     point group C_s (m)    
     there are  2 classes
     the character table:

       E     s    
A'     1.00  1.00
A''    1.00 -1.00

     the symmetry operations in each class and the name of the first element:

     E        1
          identity                                               
     s        2
          inv. 180 deg rotation - cart. axis [0,0,1]             

   Cartesian axes

     site n.     atom                  positions (alat units)
         1           O   tau(   1) = (   0.5140000   0.5255000   0.5000000  )
         2           H   tau(   2) = (   0.5935000   0.4785000   0.5000000  )
         3           H   tau(   3) = (   0.4495000   0.4600000   0.5000000  )

   Crystallographic axes

     site n.     atom                  positions (cryst. coord.)
         1           O   tau(   1) = (  0.5140000  0.5255000  0.5000000  )
         2           H   tau(   2) = (  0.5935000  0.4785000  0.5000000  )
         3           H   tau(   3) = (  0.4495000  0.4600000  0.5000000  )

     number of k points=     1
                       cart. coord. in units 2pi/alat
        k(    1) = (   0.0000000   0.0000000   0.0000000), wk =   2.0000000

                       cryst. coord.
        k(    1) = (   0.0000000   0.0000000   0.0000000), wk =   2.0000000

     Dense  grid:   701475 G-vectors     FFT dimensions: ( 120, 120, 120)

     Smooth grid:   177509 G-vectors     FFT dimensions: (  72,  72,  72)

     Dynamical RAM for                 wfc:       0.34 MB

     Dynamical RAM for     wfc (w. buffer):       0.34 MB

     Dynamical RAM for           str. fact:       5.35 MB

     Dynamical RAM for           local pot:       0.00 MB

     Dynamical RAM for          nlocal pot:       1.02 MB

     Dynamical RAM for                qrad:       0.79 MB

     Dynamical RAM for          rho,v,vnew:      17.92 MB

     Dynamical RAM for               rhoin:       5.97 MB

     Dynamical RAM for            rho*nmix:      42.81 MB

     Dynamical RAM for           G-vectors:      10.37 MB

     Dynamical RAM for          h,s,v(r/c):       0.00 MB

     Dynamical RAM for          <psi|beta>:       0.00 MB

     Dynamical RAM for                 psi:       0.68 MB

     Dynamical RAM for                hpsi:       0.68 MB

     Dynamical RAM for                spsi:       0.68 MB

     Dynamical RAM for      wfcinit/wfcrot:       1.02 MB

     Dynamical RAM for           addusdens:     120.42 MB

     Dynamical RAM for          addusforce:     127.11 MB

     Estimated static dynamical RAM per process >     109.08 MB

     Estimated max dynamical RAM per process >     236.19 MB

     Estimated total dynamical RAM >     944.76 MB

     Initial potential from superposition of free atoms

     starting charge    7.80759, renormalised to    8.00000

     negative rho (up, down):  7.946E-04 0.000E+00
     Starting wfcs are    6 randomized atomic wfcs

     total cpu time spent up to now is        3.7 secs

     Self-consistent Calculation

     iteration #  1     ecut=    30.00 Ry     beta= 0.70
     Davidson diagonalization with overlap
     ethr =  1.00E-02,  avg # of iterations =  2.0

     negative rho (up, down):  2.566E-04 0.000E+00

     total cpu time spent up to now is        5.9 secs

     total energy              =     -34.06026559 Ry
     estimated scf accuracy    <       0.68533603 Ry
     electrostatic embedding   =       0.00000000 Ry
     cavitation energy         =       0.01259932 Ry
     PV energy                 =      -0.00607826 Ry
     correction to one-el term =      -0.00000000 Ry

     iteration #  2     ecut=    30.00 Ry     beta= 0.70
     Davidson diagonalization with overlap
     ethr =  8.57E-03,  avg # of iterations =  2.0

     negative rho (up, down):  2.633E-03 0.000E+00

     total cpu time spent up to now is        8.1 secs

     total energy              =     -34.19737760 Ry
     estimated scf accuracy    <       0.36347301 Ry
     electrostatic embedding   =       0.00000000 Ry
     cavitation energy         =       0.01336967 Ry
     PV energy                 =      -0.00665471 Ry
     correction to one-el term =      -0.00000000 Ry

     iteration #  3     ecut=    30.00 Ry     beta= 0.70
     Davidson diagonalization with overlap
     ethr =  4.54E-03,  avg # of iterations =  2.0

     negative rho (up, down):  4.323E-04 0.000E+00

     add environment contribution to local potential

     total cpu time spent up to now is       13.1 secs

     total energy              =     -34.26008297 Ry
     estimated scf accuracy    <       0.00829265 Ry
     electrostatic embedding   =       0.00000000 Ry
     cavitation energy         =       0.01341217 Ry
     PV energy                 =      -0.00668501 Ry
     correction to one-el term =      -0.00000000 Ry

     iteration #  4     ecut=    30.00 Ry     beta= 0.70
     Davidson diagonalization with overlap
     ethr =  1.04E-04,  avg # of iterations =  3.0

     negative rho (up, down):  2.648E-04 0.000E+00

     add environment contribution to local potential

     total cpu time spent up to now is       18.3 secs

     total energy              =     -34.28562976 Ry
     estimated scf accuracy    <       0.00661077 Ry
     electrostatic embedding   =      -0.01967954 Ry
     cavitation energy         =       0.01341445 Ry
     PV energy                 =      -0.00668663 Ry
     correction to one-el term =       0.08657523 Ry

     iteration #  5     ecut=    30.00 Ry     beta= 0.70
     Davidson diagonalization with overlap
     ethr =  8.26E-05,  avg # of iterations =  1.0

     negative rho (up, down):  1.824E-03 0.000E+00

     add environment contribution to local potential

     total cpu time spent up to now is       23.5 secs

     total energy              =     -34.28570632 Ry
     estimated scf accuracy    <       0.00183836 Ry
     electrostatic embedding   =      -0.02341157 Ry
     cavitation energy         =       0.01341445 Ry
     PV energy                 =      -0.00668663 Ry
     correction to one-el term =       0.08953995 Ry

     iteration #  6     ecut=    30.00 Ry     beta= 0.70
     Davidson diagonalization with overlap
     ethr =  2.30E-05,  avg # of iterations =  2.0

     negative rho (up, down):  3.308E-04 0.000E+00

     add environment contribution to local potential

     total cpu time spent up to now is       28.6 secs

     total energy              =     -34.28665248 Ry
     estimated scf accuracy    <       0.00011969 Ry
     electrostatic embedding   =      -0.03153700 Ry
     cavitation energy         =       0.01338325 Ry
     PV energy                 =      -0.00666170 Ry
     correction to one-el term =       0.21683561 Ry

     iteration #  7     ecut=    30.00 Ry     beta= 0.70
     Davidson diagonalization with overlap
     ethr =  1.50E-06,  avg # of iterations =  2.0

     negative rho (up, down):  1.965E-04 0.000E+00

     add environment contribution to local potential

     total cpu time spent up to now is       33.5 secs

     total energy              =     -34.28669934 Ry
     estimated scf accuracy    <       0.00001034 Ry
     electrostatic embedding   =      -0.03016495 Ry
     cavitation energy         =       0.01339737 Ry
     PV energy                 =      -0.00667297 Ry
     correction to one-el term =       0.18155041 Ry

     iteration #  8     ecut=    30.00 Ry     beta= 0.70
     Davidson diagonalization with overlap
     ethr =  1.29E-07,  avg # of iterations =  2.0

     negative rho (up, down):  2.205E-04 0.000E+00

     add environment contribution to local potential

     total cpu time spent up to now is       38.4 secs

     total energy              =     -34.28670307 Ry
     estimated scf accuracy    <       0.00000787 Ry
     electrostatic embedding   =      -0.02977015 Ry
     cavitation energy         =       0.01340126 Ry
     PV energy                 =      -0.00667608 Ry
     correction to one-el term =       0.17006234 Ry

     iteration #  9     ecut=    30.00 Ry     beta= 0.70
     Davidson diagonalization with overlap
     ethr =  9.84E-08,  avg # of iterations =  2.0

     negative rho (up, down):  2.194E-04 0.000E+00

     add environment contribution to local potential

     total cpu time spent up to now is       43.3 secs

     total energy              =     -34.28670510 Ry
     estimated scf accuracy    <       0.00000004 Ry
     electrostatic embedding   =      -0.02997276 Ry
     cavitation energy         =       0.01339977 Ry
     PV energy                 =      -0.00667490 Ry
     correction to one-el term =       0.17446496 Ry

     iteration # 10     ecut=    30.00 Ry     beta= 0.70
     Davidson diagonalization with overlap
     ethr =  5.39E-10,  avg # of iterations =  2.0

     negative rho (up, down):  2.185E-04 0.000E+00

     the potential shift due to the Gaussian-smeared nuclei is    -0.0214 ev

     total cpu time spent up to now is       45.3 secs

     End of self-consistent calculation

          k = 0.0000 0.0000 0.0000 ( 22119 PWs)   bands (ev):

   -25.2268 -12.9489  -9.4291  -7.3845

     occupation numbers 
     1.0000   1.0000   1.0000   1.0000

     highest occupied level (ev):    -7.3845

!    total energy              =     -34.28670510 Ry
     estimated scf accuracy    <          2.4E-09 Ry

     The total energy is the sum of the following terms:
     one-electron contribution =     -64.19770591 Ry
     hartree contribution      =      33.50792364 Ry
     xc contribution           =      -8.40739375 Ry
     ewald contribution        =       4.65897432 Ry
     electrostatic embedding   =      -0.02998256 Ry
     cavitation energy         =       0.01339967 Ry
     PV energy                 =      -0.00667482 Ry
     correction to one-el term =       0.17475431 Ry

     WARNING: you are using the parabolic pbc correction;
              the potential shift above must be added to 
              band and Fermi energies.

     convergence has been achieved in  10 iterations
     The global environment contribution to forces
     atom    1 type  2   force =     0.03547657   -0.27429858    0.00000041
     atom    2 type  1   force =     0.02798759   -0.03973790    0.00000007
     atom    3 type  1   force =    -0.01572782   -0.04499889    0.00000007


     Forces acting on atoms (cartesian axes, Ry/au):

     atom    1 type  2   force =     0.00540444    0.00967137    0.00000000
     atom    2 type  1   force =     0.00626767   -0.00104386    0.00000000
     atom    3 type  1   force =    -0.01167211   -0.00862751    0.00000000
     The non-local contrib.  to forces
     atom    1 type  2   force =     0.29472283   -2.27687879    0.00000000
     atom    2 type  1   force =    -0.17452083    0.09665952    0.00000000
     atom    3 type  1   force =     0.14590802    0.14014622    0.00000000
     The ionic contribution  to forces
     atom    1 type  2   force =    -0.53482929    4.30556355    0.00000000
     atom    2 type  1   force =     3.24976518   -1.75434632   -0.00000000
     atom    3 type  1   force =    -2.71493589   -2.55121723    0.00000000
     The local contribution  to forces
     atom    1 type  2   force =     0.21032844   -1.74468026    0.00000000
     atom    2 type  1   force =    -3.09666841    1.69642948    0.00000000
     atom    3 type  1   force =     2.57337367    2.44749016    0.00000000
     The core correction contribution to forces
     atom    1 type  2   force =     0.00000000    0.00000000    0.00000000
     atom    2 type  1   force =     0.00000000    0.00000000    0.00000000
     atom    3 type  1   force =     0.00000000    0.00000000    0.00000000
     The Hubbard contrib.    to forces
     atom    1 type  2   force =     0.00000000    0.00000000    0.00000000
     atom    2 type  1   force =     0.00000000    0.00000000    0.00000000
     atom    3 type  1   force =     0.00000000    0.00000000    0.00000000
     The SCF correction term to forces
     atom    1 type  2   force =    -0.00000148    0.00001573    0.00000000
     atom    2 type  1   force =    -0.00000322    0.00000164   -0.00000000
     atom    3 type  1   force =     0.00000254    0.00000251    0.00000000

     Total force =     0.019334     Total SCF correction =     0.000017

     BFGS Geometry Optimization
     Energy error            =      0.0E+00
     Gradient error          =      1.2E-02

     number of scf cycles    =   1
     number of bfgs steps    =   0

     energy   new            =     -34.2867050963 Ry

     new trust radius        =       0.0145145428 bohr
     new conv_thr            =       0.0000000050 Ry


ATOMIC_POSITIONS (bohr)
O            10.2854044385       10.5196713693       10.0000000000
H            11.8762676696        9.5689561360       10.0000000000
H             8.9783278920        9.1913724947       10.0000000000



     Writing output data file /home/mat/q-e/tempdir/h2o.save/
     NEW-OLD atomic charge density approx. for the potential

     negative rho (up, down):  3.785E-04 0.000E+00

     add environment contribution to local potential

     total cpu time spent up to now is       57.3 secs

     Self-consistent Calculation

     iteration #  1     ecut=    30.00 Ry     beta= 0.70
     Davidson diagonalization with overlap
     ethr =  1.00E-06,  avg # of iterations =  4.0

     negative rho (up, down):  2.271E-04 0.000E+00

     add environment contribution to local potential

     total cpu time spent up to now is       62.3 secs

     total energy              =     -34.28651009 Ry
     estimated scf accuracy    <       0.00025907 Ry
     electrostatic embedding   =      -0.03026757 Ry
     cavitation energy         =       0.01342660 Ry
     PV energy                 =      -0.00669135 Ry
     correction to one-el term =       0.18373868 Ry

     iteration #  2     ecut=    30.00 Ry     beta= 0.70
     Davidson diagonalization with overlap
     ethr =  3.24E-06,  avg # of iterations =  2.0

     negative rho (up, down):  2.364E-04 0.000E+00

     add environment contribution to local potential

     total cpu time spent up to now is       67.2 secs

     total energy              =     -34.28658287 Ry
     estimated scf accuracy    <       0.00015829 Ry
     electrostatic embedding   =      -0.03014127 Ry
     cavitation energy         =       0.01342913 Ry
     PV energy                 =      -0.00669337 Ry
     correction to one-el term =       0.17714640 Ry

     iteration #  3     ecut=    30.00 Ry     beta= 0.70
     Davidson diagonalization with overlap
     ethr =  1.98E-06,  avg # of iterations =  2.0

     negative rho (up, down):  2.158E-04 0.000E+00

     add environment contribution to local potential

     total cpu time spent up to now is       72.1 secs

     total energy              =     -34.28661132 Ry
     estimated scf accuracy    <       0.00000073 Ry
     electrostatic embedding   =      -0.03030945 Ry
     cavitation energy         =       0.01342717 Ry
     PV energy                 =      -0.00669180 Ry
     correction to one-el term =       0.18244716 Ry

     iteration #  4     ecut=    30.00 Ry     beta= 0.70
     Davidson diagonalization with overlap
     ethr =  9.08E-09,  avg # of iterations =  3.0

     negative rho (up, down):  2.155E-04 0.000E+00

     add environment contribution to local potential

     total cpu time spent up to now is       77.0 secs

     total energy              =     -34.28661180 Ry
     estimated scf accuracy    <       0.00000049 Ry
     electrostatic embedding   =      -0.03032817 Ry
     cavitation energy         =       0.01342689 Ry
     PV energy                 =      -0.00669158 Ry
     correction to one-el term =       0.18327424 Ry

     iteration #  5     ecut=    30.00 Ry     beta= 0.70
     Davidson diagonalization with overlap
     ethr =  6.09E-09,  avg # of iterations =  2.0

     negative rho (up, down):  2.174E-04 0.000E+00

     add environment contribution to local potential

     total cpu time spent up to now is       81.9 secs

     total energy              =     -34.28661188 Ry
     estimated scf accuracy    <          7.9E-09 Ry
     electrostatic embedding   =      -0.03030639 Ry
     cavitation energy         =       0.01342704 Ry
     PV energy                 =      -0.00669169 Ry
     correction to one-el term =       0.18291983 Ry

     iteration #  6     ecut=    30.00 Ry     beta= 0.70
     Davidson diagonalization with overlap
     ethr =  9.90E-11,  avg # of iterations =  3.0

     negative rho (up, down):  2.174E-04 0.000E+00

     the potential shift due to the Gaussian-smeared nuclei is    -0.0214 ev

     total cpu time spent up to now is       83.9 secs

     End of self-consistent calculation

          k = 0.0000 0.0000 0.0000 ( 22119 PWs)   bands (ev):

   -25.1488 -12.8644  -9.4352  -7.3763

     occupation numbers 
     1.0000   1.0000   1.0000   1.0000

     highest occupied level (ev):    -7.3763

!    total energy              =     -34.28661188 Ry
     estimated scf accuracy    <          3.0E-09 Ry

     The total energy is the sum of the following terms:
     one-electron contribution =     -64.02102337 Ry
     hartree contribution      =      33.42240831 Ry
     xc contribution           =      -8.39279278 Ry
     ewald contribution        =       4.54554689 Ry
     electrostatic embedding   =      -0.03029841 Ry
     cavitation energy         =       0.01342708 Ry
     PV energy                 =      -0.00669173 Ry
     correction to one-el term =       0.18281212 Ry

     WARNING: you are using the parabolic pbc correction;
              the potential shift above must be added to 
              band and Fermi energies.

     convergence has been achieved in   6 iterations
     The global environment contribution to forces
     atom    1 type  2   force =     0.03491465   -0.27527152    0.00000040
     atom    2 type  1   force =     0.02798050   -0.03985429    0.00000007
     atom    3 type  1   force =    -0.01609129   -0.04512008    0.00000007


     Forces acting on atoms (cartesian axes, Ry/au):

     atom    1 type  2   force =    -0.00722195   -0.01031885    0.00000000
     atom    2 type  1   force =     0.00126103    0.00153187    0.00000000
     atom    3 type  1   force =     0.00596092    0.00878698    0.00000000
     The non-local contrib.  to forces
     atom    1 type  2   force =     0.29447190   -2.27661005    0.00000000
     atom    2 type  1   force =    -0.17222161    0.09653108    0.00000000
     atom    3 type  1   force =     0.14000000    0.13448308    0.00000000
     The ionic contribution  to forces
     atom    1 type  2   force =    -0.57351466    4.24103669    0.00000000
     atom    2 type  1   force =     3.21793305   -1.75650354    0.00000000
     atom    3 type  1   force =    -2.64441839   -2.48453315    0.00000000
     The local contribution  to forces
     atom    1 type  2   force =     0.23720764   -1.69906043    0.00000000
     atom    2 type  1   force =    -3.07213733    1.70172869    0.00000000
     atom    3 type  1   force =     2.52677547    2.40432833    0.00000000
     The core correction contribution to forces
     atom    1 type  2   force =     0.00000000    0.00000000    0.00000000
     atom    2 type  1   force =     0.00000000    0.00000000    0.00000000
     atom    3 type  1   force =     0.00000000    0.00000000    0.00000000
     The Hubbard contrib.    to forces
     atom    1 type  2   force =     0.00000000    0.00000000    0.00000000
     atom    2 type  1   force =     0.00000000    0.00000000    0.00000000
     atom    3 type  1   force =     0.00000000    0.00000000    0.00000000
     The SCF correction term to forces
     atom    1 type  2   force =    -0.00000152   -0.00004878   -0.00000000
     atom    2 type  1   force =     0.00000639   -0.00000530    0.00000000
     atom    3 type  1   force =    -0.00000489   -0.00000646    0.00000000

     Total force =     0.016593     Total SCF correction =     0.000050
     Energy error            =      9.3E-05
     Gradient error          =      1.0E-02

     number of scf cycles    =   2
     number of bfgs steps    =   1

     energy   old            =     -34.2867050963 Ry
     energy   new            =     -34.2866118785 Ry

     CASE: energy  _new > energy  _old

     new trust radius        =       0.0058086677 bohr
     new conv_thr            =       0.0000000050 Ry


ATOMIC_POSITIONS (bohr)
O            10.2821628368       10.5138704471       10.0000000000
H            11.8725082988        9.5695822494       10.0000000000
H             8.9853288645        9.1965473035       10.0000000000



     Writing output data file /home/mat/q-e/tempdir/h2o.save/
     NEW-OLD atomic charge density approx. for the potential

     negative rho (up, down):  4.565E-04 0.000E+00

     add environment contribution to local potential

     total cpu time spent up to now is       95.9 secs

     Self-consistent Calculation

     iteration #  1     ecut=    30.00 Ry     beta= 0.70
     Davidson diagonalization with overlap
     ethr =  1.00E-06,  avg # of iterations =  3.0

     negative rho (up, down):  2.687E-04 0.000E+00

     add environment contribution to local potential

     total cpu time spent up to now is      100.8 secs

     total energy              =     -34.28671124 Ry
     estimated scf accuracy    <       0.00009059 Ry
     electrostatic embedding   =      -0.03012881 Ry
     cavitation energy         =       0.01341091 Ry
     PV energy                 =      -0.00668181 Ry
     correction to one-el term =       0.17746988 Ry

     iteration #  2     ecut=    30.00 Ry     beta= 0.70
     Davidson diagonalization with overlap
     ethr =  1.13E-06,  avg # of iterations =  2.0

     negative rho (up, down):  2.501E-04 0.000E+00

     add environment contribution to local potential

     total cpu time spent up to now is      105.7 secs

     total energy              =     -34.28673634 Ry
     estimated scf accuracy    <       0.00005433 Ry
     electrostatic embedding   =      -0.03019417 Ry
     cavitation energy         =       0.01340953 Ry
     PV energy                 =      -0.00668070 Ry
     correction to one-el term =       0.18115708 Ry

     iteration #  3     ecut=    30.00 Ry     beta= 0.70
     Davidson diagonalization with overlap
     ethr =  6.79E-07,  avg # of iterations =  2.0

     negative rho (up, down):  2.225E-04 0.000E+00

     add environment contribution to local potential

     total cpu time spent up to now is      110.6 secs

     total energy              =     -34.28674627 Ry
     estimated scf accuracy    <       0.00000024 Ry
     electrostatic embedding   =      -0.03009806 Ry
     cavitation energy         =       0.01341064 Ry
     PV energy                 =      -0.00668159 Ry
     correction to one-el term =       0.17810018 Ry

     iteration #  4     ecut=    30.00 Ry     beta= 0.70
     Davidson diagonalization with overlap
     ethr =  3.00E-09,  avg # of iterations =  3.0

     negative rho (up, down):  2.194E-04 0.000E+00

     add environment contribution to local potential

     total cpu time spent up to now is      115.5 secs

     total energy              =     -34.28674652 Ry
     estimated scf accuracy    <       0.00000017 Ry
     electrostatic embedding   =      -0.03009008 Ry
     cavitation energy         =       0.01341077 Ry
     PV energy                 =      -0.00668170 Ry
     correction to one-el term =       0.17768895 Ry

     iteration #  5     ecut=    30.00 Ry     beta= 0.70
     Davidson diagonalization with overlap
     ethr =  2.16E-09,  avg # of iterations =  2.0

     negative rho (up, down):  2.180E-04 0.000E+00

     the potential shift due to the Gaussian-smeared nuclei is    -0.0214 ev

     total cpu time spent up to now is      117.5 secs

     End of self-consistent calculation

          k = 0.0000 0.0000 0.0000 ( 22119 PWs)   bands (ev):

   -25.1952 -12.9148  -9.4315  -7.3811

     occupation numbers 
     1.0000   1.0000   1.0000   1.0000

     highest occupied level (ev):    -7.3811

!    total energy              =     -34.28674655 Ry
     estimated scf accuracy    <          2.8E-09 Ry

     The total energy is the sum of the following terms:
     one-electron contribution =     -64.12673492 Ry
     hartree contribution      =      33.47371549 Ry
     xc contribution           =      -8.40154550 Ry
     ewald contribution        =       4.61328921 Ry
     electrostatic embedding   =      -0.03010322 Ry
     cavitation energy         =       0.01341069 Ry
     PV energy                 =      -0.00668163 Ry
     correction to one-el term =       0.17790334 Ry

     WARNING: you are using the parabolic pbc correction;
              the potential shift above must be added to 
              band and Fermi energies.

     convergence has been achieved in   5 iterations
     The global environment contribution to forces
     atom    1 type  2   force =     0.03524881   -0.27465724    0.00000040
     atom    2 type  1   force =     0.02798312   -0.03978176    0.00000007
     atom    3 type  1   force =    -0.01587349   -0.04504433    0.00000007


     Forces acting on atoms (cartesian axes, Ry/au):

     atom    1 type  2   force =     0.00015476    0.00147773    0.00000000
     atom    2 type  1   force =     0.00424284   -0.00002167    0.00000000
     atom    3 type  1   force =    -0.00439760   -0.00145606    0.00000000
     The non-local contrib.  to forces
     atom    1 type  2   force =     0.29453862   -2.27686052    0.00000000
     atom    2 type  1   force =    -0.17359861    0.09661018    0.00000000
     atom    3 type  1   force =     0.14351790    0.13785531    0.00000000
     The ionic contribution  to forces
     atom    1 type  2   force =    -0.55062291    4.27945441    0.00000000
     atom    2 type  1   force =     3.23699845   -1.75524308   -0.00000000
     atom    3 type  1   force =    -2.68637554   -2.52421133   -0.00000000
     The local contribution  to forces
     atom    1 type  2   force =     0.22128635   -1.72622631    0.00000000
     atom    2 type  1   force =    -3.08684865    1.69858550    0.00000000
     atom    3 type  1   force =     2.55463140    2.43013666    0.00000000
     The core correction contribution to forces
     atom    1 type  2   force =     0.00000000    0.00000000    0.00000000
     atom    2 type  1   force =     0.00000000    0.00000000    0.00000000
     atom    3 type  1   force =     0.00000000    0.00000000    0.00000000
     The Hubbard contrib.    to forces
     atom    1 type  2   force =     0.00000000    0.00000000    0.00000000
     atom    2 type  1   force =     0.00000000    0.00000000    0.00000000
     atom    3 type  1   force =     0.00000000    0.00000000    0.00000000
     The SCF correction term to forces
     atom    1 type  2   force =    -0.00000184   -0.00004552    0.00000000
     atom    2 type  1   force =     0.00000280   -0.00000542   -0.00000000
     atom    3 type  1   force =    -0.00000359   -0.00000527   -0.00000000

     Total force =     0.006455     Total SCF correction =     0.000046
     Energy error            =      4.1E-05
     Gradient error          =      4.4E-03

     bfgs converged in   3 scf cycles and   1 bfgs steps
     (criteria: energy <  1.0E-04 Ry, force <  5.0E-03 Ry/Bohr)

     End of BFGS Geometry Optimization

     Final energy   =     -34.2867465503 Ry

     File /home/mat/q-e/tempdir/h2o.bfgs deleted, as requested
Begin final coordinates

ATOMIC_POSITIONS (bohr)
O            10.2821628368       10.5138704471       10.0000000000
H            11.8725082988        9.5695822494       10.0000000000
H             8.9853288645        9.1965473035       10.0000000000
End final coordinates



     Writing output data file /home/mat/q-e/tempdir/h2o.save/

     init_run     :      3.30s CPU      3.61s WALL (       1 calls)
     electrons    :     86.12s CPU     89.96s WALL (       3 calls)
     update_pot   :      0.94s CPU      0.98s WALL (       2 calls)
     forces       :     17.87s CPU     18.43s WALL (       3 calls)

     Called by init_run:
     wfcinit      :      0.03s CPU      0.03s WALL (       1 calls)
     wfcinit:atom :      0.00s CPU      0.00s WALL (       1 calls)
     wfcinit:wfcr :      0.02s CPU      0.02s WALL (       1 calls)
     potinit      :      1.73s CPU      1.88s WALL (       1 calls)
     hinit0       :      1.12s CPU      1.20s WALL (       1 calls)

     Called by electrons:
     c_bands      :      1.09s CPU      1.12s WALL (      21 calls)
     sum_band     :      3.73s CPU      4.54s WALL (      21 calls)
     v_of_rho     :      6.53s CPU      6.84s WALL (      24 calls)
     v_h          :      0.58s CPU      0.63s WALL (      24 calls)
     v_xc         :      5.94s CPU      6.21s WALL (      24 calls)
     newd         :      2.80s CPU      3.76s WALL (      24 calls)
     mix_rho      :      0.95s CPU      0.97s WALL (      21 calls)

     Called by c_bands:
     init_us_2    :      0.05s CPU      0.05s WALL (      43 calls)
     cegterg      :      1.05s CPU      1.08s WALL (      21 calls)

     Called by sum_band:
     sum_band:wei :      0.00s CPU      0.00s WALL (      21 calls)
     sum_band:loo :      0.20s CPU      0.20s WALL (      21 calls)
     sum_band:buf :      0.00s CPU      0.00s WALL (      21 calls)
     sum_band:ini :      0.03s CPU      0.03s WALL (      21 calls)
     sum_band:cal :      0.01s CPU      0.01s WALL (      21 calls)
     sum_band:bec :      0.00s CPU      0.00s WALL (      21 calls)
     addusdens    :      2.74s CPU      3.48s WALL (      21 calls)
     addusd:skk   :      0.05s CPU      0.05s WALL (      42 calls)
     addusd:dgemm :      0.81s CPU      1.44s WALL (      42 calls)
     addusd:qvan2 :      1.32s CPU      1.32s WALL (      42 calls)

     Called by *egterg:
     cdiaghg      :      0.00s CPU      0.00s WALL (      67 calls)
     cegterg:over :      0.03s CPU      0.03s WALL (      48 calls)
     cegterg:upda :      0.02s CPU      0.02s WALL (      48 calls)
     cegterg:last :      0.03s CPU      0.03s WALL (      48 calls)
     h_psi        :      0.94s CPU      0.97s WALL (      70 calls)
     s_psi        :      0.03s CPU      0.03s WALL (      70 calls)
     g_psi        :      0.00s CPU      0.00s WALL (      48 calls)

     Called by h_psi:
     h_psi:calbec :      0.04s CPU      0.04s WALL (      70 calls)
     vloc_psi     :      0.88s CPU      0.90s WALL (      70 calls)
     add_vuspsi   :      0.03s CPU      0.03s WALL (      70 calls)

     General routines
     calbec       :      0.05s CPU      0.05s WALL (     103 calls)
     fft          :      6.83s CPU      7.09s WALL (     314 calls)
     ffts         :      0.15s CPU      0.15s WALL (      45 calls)
     fftw         :      0.93s CPU      0.96s WALL (     602 calls)
     interpolate  :      0.61s CPU      0.63s WALL (      24 calls)

     Parallel routines
     fft_scatt_xy :      0.73s CPU      0.74s WALL (     961 calls)
     fft_scatt_yz :      2.05s CPU      2.25s WALL (     961 calls)

     Environ routines

     PWSCF        :   1m58.64s CPU   2m 3.75s WALL


   This run was terminated on:  10:59: 3   3Feb2022            

=------------------------------------------------------------------------------=
   JOB DONE.
=------------------------------------------------------------------------------=
