
     Program PWSCF v.6.7MaX starts on  3Feb2022 at 10:54:54 

     This program is part of the open-source Quantum ESPRESSO suite
     for quantum simulation of materials; please cite
         "P. Giannozzi et al., J. Phys.:Condens. Matter 21 395502 (2009);
         "P. Giannozzi et al., J. Phys.:Condens. Matter 29 465901 (2017);
          URL http://www.quantum-espresso.org", 
     in publications or presentations arising from this work. More details at
     http://www.quantum-espresso.org/quote

     Parallel version (MPI), running on     4 processors

     MPI processes distributed on     1 nodes
     R & G space division:  proc/nbgrp/npool/nimage =       4
     Waiting for input...
     Reading input from standard input
Warning: card &CELL ignored
Warning: card / ignored

     Current dimensions of program PWSCF are:
     Max number of different atomic species (ntypx) = 10
     Max number of k-points (npk) =  40000
     Max angular momentum in pseudopotentials (lmaxx) =  3

     Reading input from environ.in:
     * using electronic solvent mode
     * setting boundary derivatives method to SCCS default

     file H.pbe-rrkjus.UPF: wavefunction(s)  1S renormalized
     file O.pbe-rrkjus.UPF: wavefunction(s)  2S renormalized

     Subspace diagonalization in iterative solution of the eigenvalue problem:
     a serial algorithm will be used


     Parallelization info
     --------------------
     sticks:   dense  smooth     PW     G-vecs:    dense   smooth      PW
     Min        2386     952    237               175367    44376    5529
     Max        2388     953    238               175370    44379    5532
     Sum        9549    3809    949               701475   177509   22119



     bravais-lattice index     =            1
     lattice parameter (alat)  =      20.0000  a.u.
     unit-cell volume          =    8000.0000 (a.u.)^3
     number of atoms/cell      =            4
     number of atomic types    =            2
     number of electrons       =         8.00
     number of Kohn-Sham states=            4
     kinetic-energy cutoff     =      30.0000  Ry
     charge density cutoff     =     300.0000  Ry
     scf convergence threshold =      5.0E-09
     mixing beta               =       0.7000
     number of iterations used =            8  plain     mixing
     energy convergence thresh.=      1.0E-04
     force convergence thresh. =      5.0E-02
     Exchange-correlation= SLA  PW   PBE  PBE
                           (   1   4   3   4   0   0   0)
     nstep                     =           50


     ================================================================================

                                  Environ Setup Summary

     ================================================================================

     Please cite
         "O. Andreussi, I. Dabo and N. Marzari, J. Chem. Phys. 136, 064102 (2012)"
     in publications or presentations arising from this work.

     Parameters
     ==========

     compensation onset threshold      =               0.1000E+00

     Electrostatic Setup
     ===================

     electrostatic problem to solve    =                  poisson
     numerical solver adopted          =                   direct
     type of auxiliary density adopted =                     none
     numerical core for poisson        =                      fft
     type of pbc corrections           =                parabolic
     numerical core for corrections    =                      1da

     ================================================================================


     celldm(1)=  20.000000  celldm(2)=   0.000000  celldm(3)=   0.000000
     celldm(4)=   0.000000  celldm(5)=   0.000000  celldm(6)=   0.000000

     crystal axes: (cart. coord. in units of alat)
               a(1) = (   1.000000   0.000000   0.000000 )  
               a(2) = (   0.000000   1.000000   0.000000 )  
               a(3) = (   0.000000   0.000000   1.000000 )  

     reciprocal axes: (cart. coord. in units 2 pi/alat)
               b(1) = (  1.000000  0.000000  0.000000 )  
               b(2) = (  0.000000  1.000000  0.000000 )  
               b(3) = (  0.000000  0.000000  1.000000 )  


     PseudoPot. # 1 for H  read from file:
     /home/mat/q-e/pseudo/H.pbe-rrkjus.UPF
     MD5 check sum: 2d52a7f45632fd764c17cc6affed14c8
     Pseudo is Ultrasoft, Zval =  1.0
     Generated by new atomic code, or converted to UPF format
     Using radial grid of 1061 points,  2 beta functions with: 
                l(1) =   0
                l(2) =   0
     Q(r) pseudized with 0 coefficients 


     PseudoPot. # 2 for O  read from file:
     /home/mat/q-e/pseudo/O.pbe-rrkjus.UPF
     MD5 check sum: fadcf19ee70a498d3030e2e79cf929a4
     Pseudo is Ultrasoft, Zval =  6.0
     Generated by new atomic code, or converted to UPF format
     Using radial grid of 1269 points,  4 beta functions with: 
                l(1) =   0
                l(2) =   0
                l(3) =   1
                l(4) =   1
     Q(r) pseudized with 0 coefficients 


     atomic species   valence    mass     pseudopotential
        H              1.00     1.00800     H ( 1.00)
        O              6.00    15.99900     O ( 1.00)

      2 Sym. Ops. (no inversion) found


                                    s                        frac. trans.

      isym =  1     identity                                     

 cryst.   s( 1) = (     1          0          0      )
                  (     0          1          0      )
                  (     0          0          1      )

 cart.    s( 1) = (  1.0000000  0.0000000  0.0000000 )
                  (  0.0000000  1.0000000  0.0000000 )
                  (  0.0000000  0.0000000  1.0000000 )


      isym =  2     inv. 180 deg rotation - cart. axis [0,0,1]   

 cryst.   s( 2) = (     1          0          0      )
                  (     0          1          0      )
                  (     0          0         -1      )

 cart.    s( 2) = (  1.0000000  0.0000000  0.0000000 )
                  (  0.0000000  1.0000000  0.0000000 )
                  (  0.0000000  0.0000000 -1.0000000 )


     point group C_s (m)    
     there are  2 classes
     the character table:

       E     s    
A'     1.00  1.00
A''    1.00 -1.00

     the symmetry operations in each class and the name of the first element:

     E        1
          identity                                               
     s        2
          inv. 180 deg rotation - cart. axis [0,0,1]             

   Cartesian axes

     site n.     atom                  positions (alat units)
         1           H   tau(   1) = (   0.6115000   0.5750000   0.5000000  )
         2           H   tau(   2) = (   0.5280000   0.4375000   0.5000000  )
         3           H   tau(   3) = (   0.4510000   0.5785000   0.5000000  )
         4           O   tau(   4) = (   0.5305000   0.5305000   0.5000000  )

   Crystallographic axes

     site n.     atom                  positions (cryst. coord.)
         1           H   tau(   1) = (  0.6115000  0.5750000  0.5000000  )
         2           H   tau(   2) = (  0.5280000  0.4375000  0.5000000  )
         3           H   tau(   3) = (  0.4510000  0.5785000  0.5000000  )
         4           O   tau(   4) = (  0.5305000  0.5305000  0.5000000  )

     number of k points=     1
                       cart. coord. in units 2pi/alat
        k(    1) = (   0.0000000   0.0000000   0.0000000), wk =   2.0000000

                       cryst. coord.
        k(    1) = (   0.0000000   0.0000000   0.0000000), wk =   2.0000000

     Dense  grid:   701475 G-vectors     FFT dimensions: ( 120, 120, 120)

     Smooth grid:   177509 G-vectors     FFT dimensions: (  72,  72,  72)

     Dynamical RAM for                 wfc:       0.34 MB

     Dynamical RAM for     wfc (w. buffer):       0.34 MB

     Dynamical RAM for           str. fact:       5.35 MB

     Dynamical RAM for           local pot:       0.00 MB

     Dynamical RAM for          nlocal pot:       1.19 MB

     Dynamical RAM for                qrad:       0.79 MB

     Dynamical RAM for          rho,v,vnew:      17.92 MB

     Dynamical RAM for               rhoin:       5.97 MB

     Dynamical RAM for            rho*nmix:      42.81 MB

     Dynamical RAM for           G-vectors:      10.37 MB

     Dynamical RAM for          h,s,v(r/c):       0.00 MB

     Dynamical RAM for          <psi|beta>:       0.00 MB

     Dynamical RAM for                 psi:       0.68 MB

     Dynamical RAM for                hpsi:       0.68 MB

     Dynamical RAM for                spsi:       0.68 MB

     Dynamical RAM for      wfcinit/wfcrot:       1.19 MB

     Dynamical RAM for           addusdens:     123.09 MB

     Dynamical RAM for          addusforce:     135.14 MB

     Estimated static dynamical RAM per process >     109.25 MB

     Estimated max dynamical RAM per process >     244.39 MB

     Estimated total dynamical RAM >     977.55 MB

     Initial potential from superposition of free atoms

     starting charge    8.71139, renormalised to    8.00000

     negative rho (up, down):  6.657E-04 0.000E+00
     Starting wfcs are    7 randomized atomic wfcs

     total cpu time spent up to now is        1.7 secs

     Self-consistent Calculation

     iteration #  1     ecut=    30.00 Ry     beta= 0.70
     Davidson diagonalization with overlap
     ethr =  1.00E-02,  avg # of iterations =  2.0

     negative rho (up, down):  1.980E-04 0.000E+00

     total cpu time spent up to now is        2.6 secs

     total energy              =     -34.08890812 Ry
     estimated scf accuracy    <       2.63815015 Ry
     electrostatic embedding   =       0.00176715 Ry
     correction to one-el term =      -0.00000000 Ry

     iteration #  2     ecut=    30.00 Ry     beta= 0.70
     Davidson diagonalization with overlap
     ethr =  1.00E-02,  avg # of iterations =  3.0

     negative rho (up, down):  4.182E-03 0.000E+00

     total cpu time spent up to now is        3.6 secs

     total energy              =     -34.78194231 Ry
     estimated scf accuracy    <       1.02536527 Ry
     electrostatic embedding   =       0.00176715 Ry
     correction to one-el term =      -0.00000000 Ry

     iteration #  3     ecut=    30.00 Ry     beta= 0.70
     Davidson diagonalization with overlap
     ethr =  1.00E-02,  avg # of iterations =  2.0

     negative rho (up, down):  1.330E-02 0.000E+00

     add environment contribution to local potential

     total cpu time spent up to now is        4.6 secs

     total energy              =     -34.95103600 Ry
     estimated scf accuracy    <       0.02242161 Ry
     electrostatic embedding   =       0.00176715 Ry
     correction to one-el term =      -0.00000000 Ry

     iteration #  4     ecut=    30.00 Ry     beta= 0.70
     Davidson diagonalization with overlap
     ethr =  2.80E-04,  avg # of iterations =  2.0

     negative rho (up, down):  8.744E-04 0.000E+00

     add environment contribution to local potential

     total cpu time spent up to now is        5.6 secs

     total energy              =     -34.81061390 Ry
     estimated scf accuracy    <       0.00620880 Ry
     electrostatic embedding   =       0.14565749 Ry
     correction to one-el term =       2.27684113 Ry

     iteration #  5     ecut=    30.00 Ry     beta= 0.70
     Davidson diagonalization with overlap
     ethr =  7.76E-05,  avg # of iterations =  1.0

     negative rho (up, down):  9.103E-04 0.000E+00

     add environment contribution to local potential

     total cpu time spent up to now is        6.5 secs

     total energy              =     -34.81008851 Ry
     estimated scf accuracy    <       0.00134244 Ry
     electrostatic embedding   =       0.14609810 Ry
     correction to one-el term =       2.27992530 Ry

     iteration #  6     ecut=    30.00 Ry     beta= 0.70
     Davidson diagonalization with overlap
     ethr =  1.68E-05,  avg # of iterations =  2.0

     negative rho (up, down):  3.423E-04 0.000E+00

     add environment contribution to local potential

     total cpu time spent up to now is        7.5 secs

     total energy              =     -34.81049383 Ry
     estimated scf accuracy    <       0.00012040 Ry
     electrostatic embedding   =       0.14604429 Ry
     correction to one-el term =       2.27954856 Ry

     iteration #  7     ecut=    30.00 Ry     beta= 0.70
     Davidson diagonalization with overlap
     ethr =  1.50E-06,  avg # of iterations =  2.0

     negative rho (up, down):  2.979E-04 0.000E+00

     add environment contribution to local potential

     total cpu time spent up to now is        8.6 secs

     total energy              =     -34.81051822 Ry
     estimated scf accuracy    <       0.00000115 Ry
     electrostatic embedding   =       0.14608864 Ry
     correction to one-el term =       2.27985904 Ry

     iteration #  8     ecut=    30.00 Ry     beta= 0.70
     Davidson diagonalization with overlap
     ethr =  1.44E-08,  avg # of iterations =  2.0

     negative rho (up, down):  2.987E-04 0.000E+00

     add environment contribution to local potential

     total cpu time spent up to now is        9.6 secs

     total energy              =     -34.81051849 Ry
     estimated scf accuracy    <       0.00000014 Ry
     electrostatic embedding   =       0.14609304 Ry
     correction to one-el term =       2.27988983 Ry

     iteration #  9     ecut=    30.00 Ry     beta= 0.70
     Davidson diagonalization with overlap
     ethr =  1.76E-09,  avg # of iterations =  1.0

     negative rho (up, down):  2.978E-04 0.000E+00

     add environment contribution to local potential

     total cpu time spent up to now is       10.5 secs

     total energy              =     -34.81051838 Ry
     estimated scf accuracy    <       0.00000026 Ry
     electrostatic embedding   =       0.14609373 Ry
     correction to one-el term =       2.27989463 Ry

     iteration # 10     ecut=    30.00 Ry     beta= 0.70
     Davidson diagonalization with overlap
     ethr =  1.76E-09,  avg # of iterations =  2.0

     negative rho (up, down):  2.977E-04 0.000E+00

     add environment contribution to local potential

     total cpu time spent up to now is       11.5 secs

     total energy              =     -34.81051840 Ry
     estimated scf accuracy    <          6.5E-09 Ry
     electrostatic embedding   =       0.14609422 Ry
     correction to one-el term =       2.27989807 Ry

     iteration # 11     ecut=    30.00 Ry     beta= 0.70
     Davidson diagonalization with overlap
     ethr =  8.16E-11,  avg # of iterations =  2.0

     negative rho (up, down):  2.976E-04 0.000E+00

     the potential shift due to the Gaussian-smeared nuclei is    -0.0240 ev

     total cpu time spent up to now is       12.3 secs

     End of self-consistent calculation

          k = 0.0000 0.0000 0.0000 ( 22119 PWs)   bands (ev):

   -36.5745 -24.1837 -24.1138 -18.0207

     occupation numbers 
     1.0000   1.0000   1.0000   1.0000

     highest occupied level (ev):   -18.0207

!    total energy              =     -34.81051840 Ry
     estimated scf accuracy    <          7.3E-11 Ry

     The total energy is the sum of the following terms:
     one-electron contribution =     -72.94527864 Ry
     hartree contribution      =      34.49563786 Ry
     xc contribution           =      -8.61418705 Ry
     ewald contribution        =       9.82731652 Ry
     electrostatic embedding   =       0.14609430 Ry
     correction to one-el term =       2.27989861 Ry

     WARNING: you are using the parabolic pbc correction;
              the potential shift above must be added to 
              band and Fermi energies.

     convergence has been achieved in  11 iterations
     The global environment contribution to forces
     atom    1 type  1   force =     0.00170586    0.00093792    0.00000000
     atom    2 type  1   force =    -0.00004296   -0.00194187    0.00000000
     atom    3 type  1   force =    -0.00165564    0.00101123    0.00000000
     atom    4 type  2   force =     0.00005640    0.00003550    0.00000001


     Forces acting on atoms (cartesian axes, Ry/au):

     atom    1 type  1   force =     0.00706123    0.00339141    0.00000000
     atom    2 type  1   force =     0.00146384    0.00430114    0.00000000
     atom    3 type  1   force =     0.00134418    0.00026759    0.00000000
     atom    4 type  2   force =    -0.00986926   -0.00796014    0.00000000
     The non-local contrib.  to forces
     atom    1 type  1   force =    -0.18090544   -0.09943313    0.00000000
     atom    2 type  1   force =     0.00560068    0.20225312    0.00000000
     atom    3 type  1   force =     0.17424535   -0.10505988    0.00000000
     atom    4 type  2   force =    -0.00697476    0.00013800    0.00000000
     The ionic contribution  to forces
     atom    1 type  1   force =     3.35709704    1.84378405    0.00000000
     atom    2 type  1   force =    -0.10013818   -3.78203326   -0.00000000
     atom    3 type  1   force =    -3.24949118    1.96319837    0.00000000
     atom    4 type  2   force =    -0.00746768   -0.02494916    0.00000000
     The local contribution  to forces
     atom    1 type  1   force =    -3.17088652   -1.74194666    0.00000000
     atom    2 type  1   force =     0.09599368    3.58597337    0.00000000
     atom    3 type  1   force =     3.07819472   -1.85893130    0.00000000
     atom    4 type  2   force =     0.00446626    0.01676619    0.00000000
     The core correction contribution to forces
     atom    1 type  1   force =     0.00000000    0.00000000    0.00000000
     atom    2 type  1   force =     0.00000000    0.00000000    0.00000000
     atom    3 type  1   force =     0.00000000    0.00000000    0.00000000
     atom    4 type  2   force =     0.00000000    0.00000000    0.00000000
     The Hubbard contrib.    to forces
     atom    1 type  1   force =     0.00000000    0.00000000    0.00000000
     atom    2 type  1   force =     0.00000000    0.00000000    0.00000000
     atom    3 type  1   force =     0.00000000    0.00000000    0.00000000
     atom    4 type  2   force =     0.00000000    0.00000000    0.00000000
     The SCF correction term to forces
     atom    1 type  1   force =    -0.00000029   -0.00000018   -0.00000000
     atom    2 type  1   force =     0.00000004    0.00000037    0.00000000
     atom    3 type  1   force =     0.00000035   -0.00000024   -0.00000000
     atom    4 type  2   force =    -0.00000007   -0.00000008   -0.00000000

     Total force =     0.015641     Total SCF correction =     0.000001

     BFGS Geometry Optimization
     Energy error            =      0.0E+00
     Gradient error          =      9.9E-03

     bfgs converged in   1 scf cycles and   0 bfgs steps
     (criteria: energy <  1.0E-04 Ry, force <  5.0E-02 Ry/Bohr)

     End of BFGS Geometry Optimization

     Final energy   =     -34.8105183958 Ry
Begin final coordinates

ATOMIC_POSITIONS (bohr)
H            12.2300000000       11.5000000000       10.0000000000
H            10.5600000000        8.7500000000       10.0000000000
H             9.0200000000       11.5700000000       10.0000000000
O            10.6100000000       10.6100000000       10.0000000000
End final coordinates



     Writing output data file /home/mat/q-e/tempdir/h3o.save/

     init_run     :      1.49s CPU      1.64s WALL (       1 calls)
     electrons    :      9.19s CPU     10.66s WALL (       1 calls)
     forces       :      0.50s CPU      0.56s WALL (       1 calls)

     Called by init_run:
     wfcinit      :      0.04s CPU      0.04s WALL (       1 calls)
     wfcinit:atom :      0.00s CPU      0.00s WALL (       1 calls)
     wfcinit:wfcr :      0.03s CPU      0.03s WALL (       1 calls)
     potinit      :      0.47s CPU      0.55s WALL (       1 calls)
     hinit0       :      0.57s CPU      0.57s WALL (       1 calls)

     Called by electrons:
     c_bands      :      0.55s CPU      0.56s WALL (      11 calls)
     sum_band     :      2.00s CPU      2.54s WALL (      11 calls)
     v_of_rho     :      3.36s CPU      3.82s WALL (      12 calls)
     v_h          :      0.28s CPU      0.33s WALL (      12 calls)
     v_xc         :      3.08s CPU      3.49s WALL (      12 calls)
     newd         :      1.52s CPU      2.00s WALL (      12 calls)
     mix_rho      :      0.56s CPU      0.57s WALL (      11 calls)

     Called by c_bands:
     init_us_2    :      0.03s CPU      0.03s WALL (      23 calls)
     cegterg      :      0.52s CPU      0.54s WALL (      11 calls)

     Called by sum_band:
     sum_band:wei :      0.00s CPU      0.00s WALL (      11 calls)
     sum_band:loo :      0.10s CPU      0.11s WALL (      11 calls)
     sum_band:buf :      0.00s CPU      0.00s WALL (      11 calls)
     sum_band:ini :      0.01s CPU      0.01s WALL (      11 calls)
     sum_band:cal :      0.01s CPU      0.01s WALL (      11 calls)
     sum_band:bec :      0.00s CPU      0.00s WALL (      11 calls)
     addusdens    :      1.40s CPU      1.92s WALL (      11 calls)
     addusd:skk   :      0.03s CPU      0.04s WALL (      22 calls)
     addusd:dgemm :      0.42s CPU      0.78s WALL (      22 calls)
     addusd:qvan2 :      0.63s CPU      0.63s WALL (      22 calls)

     Called by *egterg:
     cdiaghg      :      0.00s CPU      0.00s WALL (      32 calls)
     cegterg:over :      0.01s CPU      0.01s WALL (      21 calls)
     cegterg:upda :      0.01s CPU      0.01s WALL (      21 calls)
     cegterg:last :      0.01s CPU      0.01s WALL (      21 calls)
     h_psi        :      0.49s CPU      0.50s WALL (      33 calls)
     s_psi        :      0.02s CPU      0.02s WALL (      33 calls)
     g_psi        :      0.00s CPU      0.00s WALL (      21 calls)

     Called by h_psi:
     h_psi:calbec :      0.02s CPU      0.02s WALL (      33 calls)
     vloc_psi     :      0.45s CPU      0.46s WALL (      33 calls)
     add_vuspsi   :      0.02s CPU      0.02s WALL (      33 calls)

     General routines
     calbec       :      0.03s CPU      0.03s WALL (      48 calls)
     fft          :      3.39s CPU      3.59s WALL (     156 calls)
     ffts         :      0.07s CPU      0.07s WALL (      23 calls)
     fftw         :      0.47s CPU      0.49s WALL (     306 calls)
     interpolate  :      0.30s CPU      0.31s WALL (      12 calls)

     Parallel routines
     fft_scatt_xy :      0.35s CPU      0.36s WALL (     485 calls)
     fft_scatt_yz :      1.03s CPU      1.16s WALL (     485 calls)

     Environ routines

     PWSCF        :     11.30s CPU     13.01s WALL


   This run was terminated on:  10:55: 7   3Feb2022            

=------------------------------------------------------------------------------=
   JOB DONE.
=------------------------------------------------------------------------------=
