
     Program PWSCF v.6.7MaX starts on  3Feb2022 at 10:55: 8 

     This program is part of the open-source Quantum ESPRESSO suite
     for quantum simulation of materials; please cite
         "P. Giannozzi et al., J. Phys.:Condens. Matter 21 395502 (2009);
         "P. Giannozzi et al., J. Phys.:Condens. Matter 29 465901 (2017);
          URL http://www.quantum-espresso.org", 
     in publications or presentations arising from this work. More details at
     http://www.quantum-espresso.org/quote

     Parallel version (MPI), running on     4 processors

     MPI processes distributed on     1 nodes
     R & G space division:  proc/nbgrp/npool/nimage =       4
     Waiting for input...
     Reading input from standard input
Warning: card &CELL ignored
Warning: card / ignored

     Current dimensions of program PWSCF are:
     Max number of different atomic species (ntypx) = 10
     Max number of k-points (npk) =  40000
     Max angular momentum in pseudopotentials (lmaxx) =  3

     Reading input from environ.in:
     * using ionic solvent mode
     * setting boundary derivatives method to SSCS default

     file H.pbe-rrkjus.UPF: wavefunction(s)  1S renormalized
     file O.pbe-rrkjus.UPF: wavefunction(s)  2S renormalized

     Subspace diagonalization in iterative solution of the eigenvalue problem:
     a serial algorithm will be used


     Parallelization info
     --------------------
     sticks:   dense  smooth     PW     G-vecs:    dense   smooth      PW
     Min        2386     952    237               175367    44376    5529
     Max        2388     953    238               175370    44379    5532
     Sum        9549    3809    949               701475   177509   22119



     bravais-lattice index     =            1
     lattice parameter (alat)  =      20.0000  a.u.
     unit-cell volume          =    8000.0000 (a.u.)^3
     number of atoms/cell      =            2
     number of atomic types    =            2
     number of electrons       =         8.00
     number of Kohn-Sham states=            4
     kinetic-energy cutoff     =      30.0000  Ry
     charge density cutoff     =     300.0000  Ry
     scf convergence threshold =      5.0E-09
     mixing beta               =       0.7000
     number of iterations used =            8  plain     mixing
     energy convergence thresh.=      1.0E-04
     force convergence thresh. =      5.0E-03
     Exchange-correlation= SLA  PW   PBE  PBE
                           (   1   4   3   4   0   0   0)
     nstep                     =           50


     ================================================================================

                                  Environ Setup Summary

     ================================================================================

     Please cite
         "O. Andreussi, I. Dabo and N. Marzari, J. Chem. Phys. 136, 064102 (2012)"
     in publications or presentations arising from this work.

     Parameters
     ==========

     compensation onset threshold      =               0.1000E+00
     static permittivity               =                    78.30
     surface tension in input (dyn/cm) =                    50.00
     surface tension in internal units =               0.6423E-04
     external pressure in input (GPa)  =                    -0.35
     external pressure in inter. units =              -0.2379E-04

     Solvent Boundary
     ================

     solvent mode                      =                    ionic
     derivatives method                =                   lowmem
     numerical core for derivatives    =                      fft
     switching function adopted        =                     SCCS
     density limit for vacuum region   =               0.5000E-02
     density limit for bulk solvent    =               0.1000E-03
     soft-sphere radius mode           =                     muff
     soft-sphere softness              =                     0.50
     alpha                             =                     1.12
     interface is field aware
     field aware factor                =                     0.08
     asymmetry of field-awareness      =                    -0.32
     field limit for no correction     =                     2.00
     field limit for full correction   =                     6.00

     Electrostatic Setup
     ===================

     electrostatic problem to solve    =              generalized
     numerical solver adopted          =                       cg
     type of auxiliary density adopted =                     none
     numerical core for poisson        =                      fft
     type of pbc corrections           =                parabolic
     numerical core for corrections    =                      1da

     ================================================================================


     celldm(1)=  20.000000  celldm(2)=   0.000000  celldm(3)=   0.000000
     celldm(4)=   0.000000  celldm(5)=   0.000000  celldm(6)=   0.000000

     crystal axes: (cart. coord. in units of alat)
               a(1) = (   1.000000   0.000000   0.000000 )  
               a(2) = (   0.000000   1.000000   0.000000 )  
               a(3) = (   0.000000   0.000000   1.000000 )  

     reciprocal axes: (cart. coord. in units 2 pi/alat)
               b(1) = (  1.000000  0.000000  0.000000 )  
               b(2) = (  0.000000  1.000000  0.000000 )  
               b(3) = (  0.000000  0.000000  1.000000 )  


     PseudoPot. # 1 for H  read from file:
     /home/mat/q-e/pseudo/H.pbe-rrkjus.UPF
     MD5 check sum: 2d52a7f45632fd764c17cc6affed14c8
     Pseudo is Ultrasoft, Zval =  1.0
     Generated by new atomic code, or converted to UPF format
     Using radial grid of 1061 points,  2 beta functions with: 
                l(1) =   0
                l(2) =   0
     Q(r) pseudized with 0 coefficients 


     PseudoPot. # 2 for O  read from file:
     /home/mat/q-e/pseudo/O.pbe-rrkjus.UPF
     MD5 check sum: fadcf19ee70a498d3030e2e79cf929a4
     Pseudo is Ultrasoft, Zval =  6.0
     Generated by new atomic code, or converted to UPF format
     Using radial grid of 1269 points,  4 beta functions with: 
                l(1) =   0
                l(2) =   0
                l(3) =   1
                l(4) =   1
     Q(r) pseudized with 0 coefficients 


     atomic species   valence    mass     pseudopotential
        H              1.00     1.00800     H ( 1.00)
        O              6.00    15.99900     O ( 1.00)

      8 Sym. Ops. (no inversion) found


                                    s                        frac. trans.

      isym =  1     identity                                     

 cryst.   s( 1) = (     1          0          0      )
                  (     0          1          0      )
                  (     0          0          1      )

 cart.    s( 1) = (  1.0000000  0.0000000  0.0000000 )
                  (  0.0000000  1.0000000  0.0000000 )
                  (  0.0000000  0.0000000  1.0000000 )


      isym =  2     180 deg rotation - cart. axis [1,0,0]        

 cryst.   s( 2) = (     1          0          0      )
                  (     0         -1          0      )
                  (     0          0         -1      )

 cart.    s( 2) = (  1.0000000  0.0000000  0.0000000 )
                  (  0.0000000 -1.0000000  0.0000000 )
                  (  0.0000000  0.0000000 -1.0000000 )


      isym =  3      90 deg rotation - cart. axis [-1,0,0]       

 cryst.   s( 3) = (     1          0          0      )
                  (     0          0         -1      )
                  (     0          1          0      )

 cart.    s( 3) = (  1.0000000  0.0000000  0.0000000 )
                  (  0.0000000  0.0000000  1.0000000 )
                  (  0.0000000 -1.0000000  0.0000000 )


      isym =  4      90 deg rotation - cart. axis [1,0,0]        

 cryst.   s( 4) = (     1          0          0      )
                  (     0          0          1      )
                  (     0         -1          0      )

 cart.    s( 4) = (  1.0000000  0.0000000  0.0000000 )
                  (  0.0000000  0.0000000 -1.0000000 )
                  (  0.0000000  1.0000000  0.0000000 )


      isym =  5     inv. 180 deg rotation - cart. axis [0,0,1]   

 cryst.   s( 5) = (     1          0          0      )
                  (     0          1          0      )
                  (     0          0         -1      )

 cart.    s( 5) = (  1.0000000  0.0000000  0.0000000 )
                  (  0.0000000  1.0000000  0.0000000 )
                  (  0.0000000  0.0000000 -1.0000000 )


      isym =  6     inv. 180 deg rotation - cart. axis [0,1,0]   

 cryst.   s( 6) = (     1          0          0      )
                  (     0         -1          0      )
                  (     0          0          1      )

 cart.    s( 6) = (  1.0000000  0.0000000  0.0000000 )
                  (  0.0000000 -1.0000000  0.0000000 )
                  (  0.0000000  0.0000000  1.0000000 )


      isym =  7     inv. 180 deg rotation - cart. axis [0,1,1]   

 cryst.   s( 7) = (     1          0          0      )
                  (     0          0         -1      )
                  (     0         -1          0      )

 cart.    s( 7) = (  1.0000000  0.0000000  0.0000000 )
                  (  0.0000000  0.0000000 -1.0000000 )
                  (  0.0000000 -1.0000000  0.0000000 )


      isym =  8     inv. 180 deg rotation - cart. axis [0,1,-1]  

 cryst.   s( 8) = (     1          0          0      )
                  (     0          0          1      )
                  (     0          1          0      )

 cart.    s( 8) = (  1.0000000  0.0000000  0.0000000 )
                  (  0.0000000  0.0000000  1.0000000 )
                  (  0.0000000  1.0000000  0.0000000 )


     point group C_4v (4mm) 
     there are  5 classes
     the character table:

       E     2C4   C2    2s_v  2s_d 
A_1    1.00  1.00  1.00  1.00  1.00
A_2    1.00  1.00  1.00 -1.00 -1.00
B_1    1.00 -1.00  1.00  1.00 -1.00
B_2    1.00 -1.00  1.00 -1.00  1.00
E      2.00  0.00 -2.00  0.00  0.00

     the symmetry operations in each class and the name of the first element:

     E        1
          identity                                               
     2C4      3    4
           90 deg rotation - cart. axis [-1,0,0]                 
     C2       2
          180 deg rotation - cart. axis [1,0,0]                  
     2s_v     5    6
          inv. 180 deg rotation - cart. axis [0,0,1]             
     2s_d     7    8
          inv. 180 deg rotation - cart. axis [0,1,1]             

   Cartesian axes

     site n.     atom                  positions (alat units)
         1           O   tau(   1) = (   0.5000000   0.5000000   0.5000000  )
         2           H   tau(   2) = (   0.5920000   0.5000000   0.5000000  )

   Crystallographic axes

     site n.     atom                  positions (cryst. coord.)
         1           O   tau(   1) = (  0.5000000  0.5000000  0.5000000  )
         2           H   tau(   2) = (  0.5920000  0.5000000  0.5000000  )

     number of k points=     1
                       cart. coord. in units 2pi/alat
        k(    1) = (   0.0000000   0.0000000   0.0000000), wk =   2.0000000

                       cryst. coord.
        k(    1) = (   0.0000000   0.0000000   0.0000000), wk =   2.0000000

     Dense  grid:   701475 G-vectors     FFT dimensions: ( 120, 120, 120)

     Smooth grid:   177509 G-vectors     FFT dimensions: (  72,  72,  72)

     Dynamical RAM for                 wfc:       0.34 MB

     Dynamical RAM for     wfc (w. buffer):       0.34 MB

     Dynamical RAM for           str. fact:       5.35 MB

     Dynamical RAM for           local pot:       0.00 MB

     Dynamical RAM for          nlocal pot:       0.85 MB

     Dynamical RAM for                qrad:       0.79 MB

     Dynamical RAM for          rho,v,vnew:      17.92 MB

     Dynamical RAM for               rhoin:       5.97 MB

     Dynamical RAM for            rho*nmix:      42.81 MB

     Dynamical RAM for           G-vectors:      10.37 MB

     Dynamical RAM for          h,s,v(r/c):       0.00 MB

     Dynamical RAM for          <psi|beta>:       0.00 MB

     Dynamical RAM for                 psi:       0.68 MB

     Dynamical RAM for                hpsi:       0.68 MB

     Dynamical RAM for                spsi:       0.68 MB

     Dynamical RAM for      wfcinit/wfcrot:       0.85 MB

     Dynamical RAM for           addusdens:     117.74 MB

     Dynamical RAM for          addusforce:     119.08 MB

     Estimated static dynamical RAM per process >     108.91 MB

     Estimated max dynamical RAM per process >     227.99 MB

     Estimated total dynamical RAM >     911.97 MB

     Initial potential from superposition of free atoms

     starting charge    6.90379, renormalised to    8.00000

     negative rho (up, down):  9.269E-04 0.000E+00
     Starting wfcs are    5 randomized atomic wfcs

     total cpu time spent up to now is        3.0 secs

     Self-consistent Calculation

     iteration #  1     ecut=    30.00 Ry     beta= 0.70
     Davidson diagonalization with overlap
     ethr =  1.00E-02,  avg # of iterations =  3.0

     negative rho (up, down):  1.791E-04 0.000E+00

     total cpu time spent up to now is        4.7 secs

     total energy              =     -32.53370701 Ry
     estimated scf accuracy    <       1.22142329 Ry
     electrostatic embedding   =      -0.00137445 Ry
     cavitation energy         =       0.01036991 Ry
     PV energy                 =      -0.00457525 Ry
     correction to one-el term =      -0.00000000 Ry

     iteration #  2     ecut=    30.00 Ry     beta= 0.70
     Davidson diagonalization with overlap
     ethr =  1.00E-02,  avg # of iterations =  3.0

     negative rho (up, down):  1.085E-02 0.000E+00

     total cpu time spent up to now is        6.5 secs

     total energy              =     -32.91047597 Ry
     estimated scf accuracy    <       1.83559622 Ry
     electrostatic embedding   =      -0.00137445 Ry
     cavitation energy         =       0.01031979 Ry
     PV energy                 =      -0.00454233 Ry
     correction to one-el term =      -0.00000000 Ry

     iteration #  3     ecut=    30.00 Ry     beta= 0.70
     Davidson diagonalization with overlap
     ethr =  1.00E-02,  avg # of iterations =  2.0

     negative rho (up, down):  5.313E-03 0.000E+00

     add environment contribution to local potential

     total cpu time spent up to now is       10.4 secs

     total energy              =     -33.11362298 Ry
     estimated scf accuracy    <       0.07002246 Ry
     electrostatic embedding   =      -0.00137445 Ry
     cavitation energy         =       0.01035963 Ry
     PV energy                 =      -0.00456849 Ry
     correction to one-el term =      -0.00000000 Ry

     iteration #  4     ecut=    30.00 Ry     beta= 0.70
     Davidson diagonalization with overlap
     ethr =  8.75E-04,  avg # of iterations =  2.0

     negative rho (up, down):  3.364E-03 0.000E+00

     add environment contribution to local potential

     total cpu time spent up to now is       14.5 secs

     total energy              =     -33.32458593 Ry
     estimated scf accuracy    <       0.01134280 Ry
     electrostatic embedding   =      -0.15823348 Ry
     cavitation energy         =       0.01034864 Ry
     PV energy                 =      -0.00456127 Ry
     correction to one-el term =       2.73926585 Ry

     iteration #  5     ecut=    30.00 Ry     beta= 0.70
     Davidson diagonalization with overlap
     ethr =  1.42E-04,  avg # of iterations =  2.0

     negative rho (up, down):  5.342E-03 0.000E+00

     add environment contribution to local potential

     total cpu time spent up to now is       18.6 secs

     total energy              =     -33.31436026 Ry
     estimated scf accuracy    <       0.03090357 Ry
     electrostatic embedding   =      -0.17450371 Ry
     cavitation energy         =       0.01036991 Ry
     PV energy                 =      -0.00457525 Ry
     correction to one-el term =       2.82882022 Ry

     iteration #  6     ecut=    30.00 Ry     beta= 0.70
     Davidson diagonalization with overlap
     ethr =  1.42E-04,  avg # of iterations =  2.0

     negative rho (up, down):  1.614E-03 0.000E+00

     add environment contribution to local potential

     total cpu time spent up to now is       22.8 secs

     total energy              =     -33.32384736 Ry
     estimated scf accuracy    <       0.00144891 Ry
     electrostatic embedding   =      -0.22251138 Ry
     cavitation energy         =       0.01036991 Ry
     PV energy                 =      -0.00457525 Ry
     correction to one-el term =       3.24453436 Ry

     iteration #  7     ecut=    30.00 Ry     beta= 0.70
     Davidson diagonalization with overlap
     ethr =  1.81E-05,  avg # of iterations =  1.0

     negative rho (up, down):  1.994E-04 0.000E+00

     add environment contribution to local potential

     total cpu time spent up to now is       26.8 secs

     total energy              =     -33.32392441 Ry
     estimated scf accuracy    <       0.00075323 Ry
     electrostatic embedding   =      -0.21408838 Ry
     cavitation energy         =       0.01036986 Ry
     PV energy                 =      -0.00457522 Ry
     correction to one-el term =       3.18467788 Ry

     iteration #  8     ecut=    30.00 Ry     beta= 0.70
     Davidson diagonalization with overlap
     ethr =  9.42E-06,  avg # of iterations =  2.0

     negative rho (up, down):  1.851E-04 0.000E+00

     add environment contribution to local potential

     total cpu time spent up to now is       30.8 secs

     total energy              =     -33.32427943 Ry
     estimated scf accuracy    <       0.00004327 Ry
     electrostatic embedding   =      -0.20471953 Ry
     cavitation energy         =       0.01036968 Ry
     PV energy                 =      -0.00457510 Ry
     correction to one-el term =       3.10742233 Ry

     iteration #  9     ecut=    30.00 Ry     beta= 0.70
     Davidson diagonalization with overlap
     ethr =  5.41E-07,  avg # of iterations =  1.0

     negative rho (up, down):  1.567E-04 0.000E+00

     add environment contribution to local potential

     total cpu time spent up to now is       34.8 secs

     total energy              =     -33.32428430 Ry
     estimated scf accuracy    <       0.00000430 Ry
     electrostatic embedding   =      -0.20508862 Ry
     cavitation energy         =       0.01036969 Ry
     PV energy                 =      -0.00457511 Ry
     correction to one-el term =       3.11042123 Ry

     iteration # 10     ecut=    30.00 Ry     beta= 0.70
     Davidson diagonalization with overlap
     ethr =  5.38E-08,  avg # of iterations =  1.0

     negative rho (up, down):  1.484E-04 0.000E+00

     add environment contribution to local potential

     total cpu time spent up to now is       38.8 secs

     total energy              =     -33.32428329 Ry
     estimated scf accuracy    <       0.00000302 Ry
     electrostatic embedding   =      -0.20495227 Ry
     cavitation energy         =       0.01036970 Ry
     PV energy                 =      -0.00457512 Ry
     correction to one-el term =       3.10898437 Ry

     iteration # 11     ecut=    30.00 Ry     beta= 0.70
     Davidson diagonalization with overlap
     ethr =  3.77E-08,  avg # of iterations =  2.0

     negative rho (up, down):  1.455E-04 0.000E+00

     add environment contribution to local potential

     total cpu time spent up to now is       42.8 secs

     total energy              =     -33.32428374 Ry
     estimated scf accuracy    <       0.00000018 Ry
     electrostatic embedding   =      -0.20504174 Ry
     cavitation energy         =       0.01036970 Ry
     PV energy                 =      -0.00457512 Ry
     correction to one-el term =       3.10964449 Ry

     iteration # 12     ecut=    30.00 Ry     beta= 0.70
     Davidson diagonalization with overlap
     ethr =  2.22E-09,  avg # of iterations =  1.0

     negative rho (up, down):  1.443E-04 0.000E+00

     add environment contribution to local potential

     total cpu time spent up to now is       46.8 secs

     total energy              =     -33.32428369 Ry
     estimated scf accuracy    <       0.00000012 Ry
     electrostatic embedding   =      -0.20505403 Ry
     cavitation energy         =       0.01036970 Ry
     PV energy                 =      -0.00457512 Ry
     correction to one-el term =       3.10973708 Ry

     iteration # 13     ecut=    30.00 Ry     beta= 0.70
     Davidson diagonalization with overlap
     ethr =  1.53E-09,  avg # of iterations =  2.0

     negative rho (up, down):  1.437E-04 0.000E+00

     the potential shift due to the Gaussian-smeared nuclei is    -0.0187 ev

     total cpu time spent up to now is       48.5 secs

     End of self-consistent calculation

          k = 0.0000 0.0000 0.0000 ( 22119 PWs)   bands (ev):

   -21.5645  -8.8869  -5.4378  -5.4378

     occupation numbers 
     1.0000   1.0000   1.0000   1.0000

     highest occupied level (ev):    -5.4378

!    total energy              =     -33.32428371 Ry
     estimated scf accuracy    <          3.1E-09 Ry

     The total energy is the sum of the following terms:
     one-electron contribution =     -59.84275877 Ry
     hartree contribution      =      32.15190838 Ry
     xc contribution           =      -8.12534050 Ry
     ewald contribution        =      -0.41886970 Ry
     electrostatic embedding   =      -0.20509561 Ry
     cavitation energy         =       0.01036970 Ry
     PV energy                 =      -0.00457512 Ry
     correction to one-el term =       3.11007790 Ry

     WARNING: you are using the parabolic pbc correction;
              the potential shift above must be added to 
              band and Fermi energies.

     convergence has been achieved in  13 iterations
     The global environment contribution to forces
     atom    1 type  2   force =     0.38854510   -0.00000001   -0.00000001
     atom    2 type  1   force =     0.10150097   -0.00000000   -0.00000000


     Forces acting on atoms (cartesian axes, Ry/au):

     atom    1 type  2   force =    -0.01048124    0.00000000    0.00000000
     atom    2 type  1   force =     0.01048124    0.00000000    0.00000000
     The non-local contrib.  to forces
     atom    1 type  2   force =     1.66447347    0.00000000    0.00000000
     atom    2 type  1   force =    -0.19132090    0.00000000    0.00000000
     The ionic contribution  to forces
     atom    1 type  2   force =    -3.53257121   -0.00000000   -0.00000000
     atom    2 type  1   force =     3.53257121    0.00000000    0.00000000
     The local contribution  to forces
     atom    1 type  2   force =     1.46564302    0.00000000    0.00000000
     atom    2 type  1   force =    -3.43568712    0.00000000    0.00000000
     The core correction contribution to forces
     atom    1 type  2   force =     0.00000000    0.00000000    0.00000000
     atom    2 type  1   force =     0.00000000    0.00000000    0.00000000
     The Hubbard contrib.    to forces
     atom    1 type  2   force =     0.00000000    0.00000000    0.00000000
     atom    2 type  1   force =     0.00000000    0.00000000    0.00000000
     The SCF correction term to forces
     atom    1 type  2   force =     0.00001176   -0.00000000    0.00000000
     atom    2 type  1   force =     0.00000045   -0.00000000   -0.00000000

     Total force =     0.014823     Total SCF correction =     0.000012

     BFGS Geometry Optimization
     Energy error            =      0.0E+00
     Gradient error          =      1.0E-02

     number of scf cycles    =   1
     number of bfgs steps    =   0

     energy   new            =     -33.3242837105 Ry

     new trust radius        =       0.0104812413 bohr
     new conv_thr            =       0.0000000050 Ry


ATOMIC_POSITIONS (bohr)
O             9.9895187587       10.0000000000       10.0000000000
H            11.8504812413       10.0000000000       10.0000000000



     Writing output data file /home/mat/q-e/tempdir/ho.save/
     NEW-OLD atomic charge density approx. for the potential

     negative rho (up, down):  2.164E-04 0.000E+00

     add environment contribution to local potential

     total cpu time spent up to now is       56.4 secs

     Self-consistent Calculation

     iteration #  1     ecut=    30.00 Ry     beta= 0.70
     Davidson diagonalization with overlap
     ethr =  1.00E-06,  avg # of iterations =  3.0

     negative rho (up, down):  1.398E-04 0.000E+00

     add environment contribution to local potential

     total cpu time spent up to now is       60.5 secs

     total energy              =     -33.32410370 Ry
     estimated scf accuracy    <       0.00018785 Ry
     electrostatic embedding   =      -0.20533462 Ry
     cavitation energy         =       0.01039280 Ry
     PV energy                 =      -0.00458807 Ry
     correction to one-el term =       3.11243936 Ry

     iteration #  2     ecut=    30.00 Ry     beta= 0.70
     Davidson diagonalization with overlap
     ethr =  2.35E-06,  avg # of iterations =  2.0

     negative rho (up, down):  1.655E-04 0.000E+00

     add environment contribution to local potential

     total cpu time spent up to now is       64.5 secs

     total energy              =     -33.32415272 Ry
     estimated scf accuracy    <       0.00019804 Ry
     electrostatic embedding   =      -0.20455595 Ry
     cavitation energy         =       0.01039283 Ry
     PV energy                 =      -0.00458810 Ry
     correction to one-el term =       3.10299681 Ry

     iteration #  3     ecut=    30.00 Ry     beta= 0.70
     Davidson diagonalization with overlap
     ethr =  2.35E-06,  avg # of iterations =  2.0

     negative rho (up, down):  1.444E-04 0.000E+00

     add environment contribution to local potential

     total cpu time spent up to now is       68.5 secs

     total energy              =     -33.32418689 Ry
     estimated scf accuracy    <       0.00000118 Ry
     electrostatic embedding   =      -0.20514725 Ry
     cavitation energy         =       0.01039283 Ry
     PV energy                 =      -0.00458809 Ry
     correction to one-el term =       3.10906900 Ry

     iteration #  4     ecut=    30.00 Ry     beta= 0.70
     Davidson diagonalization with overlap
     ethr =  1.48E-08,  avg # of iterations =  3.0

     negative rho (up, down):  1.418E-04 0.000E+00

     add environment contribution to local potential

     total cpu time spent up to now is       72.5 secs

     total energy              =     -33.32418771 Ry
     estimated scf accuracy    <       0.00000117 Ry
     electrostatic embedding   =      -0.20524652 Ry
     cavitation energy         =       0.01039282 Ry
     PV energy                 =      -0.00458808 Ry
     correction to one-el term =       3.11019454 Ry

     iteration #  5     ecut=    30.00 Ry     beta= 0.70
     Davidson diagonalization with overlap
     ethr =  1.47E-08,  avg # of iterations =  2.0

     negative rho (up, down):  1.429E-04 0.000E+00

     add environment contribution to local potential

     total cpu time spent up to now is       76.5 secs

     total energy              =     -33.32418795 Ry
     estimated scf accuracy    <          6.2E-09 Ry
     electrostatic embedding   =      -0.20518161 Ry
     cavitation energy         =       0.01039281 Ry
     PV energy                 =      -0.00458808 Ry
     correction to one-el term =       3.10965837 Ry

     iteration #  6     ecut=    30.00 Ry     beta= 0.70
     Davidson diagonalization with overlap
     ethr =  7.80E-11,  avg # of iterations =  3.0

     negative rho (up, down):  1.430E-04 0.000E+00

     add environment contribution to local potential

     total cpu time spent up to now is       80.6 secs

     total energy              =     -33.32418795 Ry
     estimated scf accuracy    <       0.00000001 Ry
     electrostatic embedding   =      -0.20516468 Ry
     cavitation energy         =       0.01039281 Ry
     PV energy                 =      -0.00458808 Ry
     correction to one-el term =       3.10953287 Ry

     iteration #  7     ecut=    30.00 Ry     beta= 0.70
     Davidson diagonalization with overlap
     ethr =  7.80E-11,  avg # of iterations =  2.0

     negative rho (up, down):  1.429E-04 0.000E+00

     the potential shift due to the Gaussian-smeared nuclei is    -0.0187 ev

     total cpu time spent up to now is       82.2 secs

     End of self-consistent calculation

          k = 0.0000 0.0000 0.0000 ( 22119 PWs)   bands (ev):

   -21.4971  -8.8632  -5.4341  -5.4341

     occupation numbers 
     1.0000   1.0000   1.0000   1.0000

     highest occupied level (ev):    -5.4341

!    total energy              =     -33.32418795 Ry
     estimated scf accuracy    <          9.3E-10 Ry

     The total energy is the sum of the following terms:
     one-electron contribution =     -59.71694049 Ry
     hartree contribution      =      32.08959217 Ry
     xc contribution           =      -8.11498925 Ry
     ewald contribution        =      -0.49208274 Ry
     electrostatic embedding   =      -0.20517248 Ry
     cavitation energy         =       0.01039281 Ry
     PV energy                 =      -0.00458808 Ry
     correction to one-el term =       3.10960010 Ry

     WARNING: you are using the parabolic pbc correction;
              the potential shift above must be added to 
              band and Fermi energies.

     convergence has been achieved in   7 iterations
     The global environment contribution to forces
     atom    1 type  2   force =     0.38573687   -0.00000001   -0.00000001
     atom    2 type  1   force =     0.10177083   -0.00000000   -0.00000000


     Forces acting on atoms (cartesian axes, Ry/au):

     atom    1 type  2   force =     0.01042620    0.00000000    0.00000000
     atom    2 type  1   force =    -0.01042620    0.00000000    0.00000000
     The non-local contrib.  to forces
     atom    1 type  2   force =     1.66072792    0.00000000    0.00000000
     atom    2 type  1   force =    -0.18462166    0.00000000    0.00000000
     The ionic contribution  to forces
     atom    1 type  2   force =    -3.45302809    0.00000000    0.00000000
     atom    2 type  1   force =     3.45302809    0.00000000    0.00000000
     The local contribution  to forces
     atom    1 type  2   force =     1.41363465    0.00000000    0.00000000
     atom    2 type  1   force =    -3.38393732   -0.00000000    0.00000000
     The core correction contribution to forces
     atom    1 type  2   force =     0.00000000    0.00000000    0.00000000
     atom    2 type  1   force =     0.00000000    0.00000000    0.00000000
     The Hubbard contrib.    to forces
     atom    1 type  2   force =     0.00000000    0.00000000    0.00000000
     atom    2 type  1   force =     0.00000000    0.00000000    0.00000000
     The SCF correction term to forces
     atom    1 type  2   force =     0.00002655   -0.00000000    0.00000000
     atom    2 type  1   force =     0.00000555    0.00000000    0.00000000

     Total force =     0.014745     Total SCF correction =     0.000027
     Energy error            =      9.6E-05
     Gradient error          =      1.0E-02

     number of scf cycles    =   2
     number of bfgs steps    =   1

     energy   old            =     -33.3242837105 Ry
     energy   new            =     -33.3241879521 Ry

     CASE: energy  _new > energy  _old

     new trust radius        =       0.0036498779 bohr
     new conv_thr            =       0.0000000050 Ry


ATOMIC_POSITIONS (bohr)
O             9.9963501221       10.0000000000       10.0000000000
H            11.8436498779       10.0000000000       10.0000000000



     Writing output data file /home/mat/q-e/tempdir/ho.save/
     NEW-OLD atomic charge density approx. for the potential

     negative rho (up, down):  2.540E-04 0.000E+00

     add environment contribution to local potential

     total cpu time spent up to now is       90.1 secs

     Self-consistent Calculation

     iteration #  1     ecut=    30.00 Ry     beta= 0.70
     Davidson diagonalization with overlap
     ethr =  1.00E-06,  avg # of iterations =  3.0

     negative rho (up, down):  1.673E-04 0.000E+00

     add environment contribution to local potential

     total cpu time spent up to now is       94.2 secs

     total energy              =     -33.32426585 Ry
     estimated scf accuracy    <       0.00007734 Ry
     electrostatic embedding   =      -0.20502092 Ry
     cavitation energy         =       0.01037776 Ry
     PV energy                 =      -0.00457964 Ry
     correction to one-el term =       3.10807487 Ry

     iteration #  2     ecut=    30.00 Ry     beta= 0.70
     Davidson diagonalization with overlap
     ethr =  9.67E-07,  avg # of iterations =  2.0

     negative rho (up, down):  1.682E-04 0.000E+00

     add environment contribution to local potential

     total cpu time spent up to now is       98.2 secs

     total energy              =     -33.32428583 Ry
     estimated scf accuracy    <       0.00008032 Ry
     electrostatic embedding   =      -0.20550953 Ry
     cavitation energy         =       0.01037773 Ry
     PV energy                 =      -0.00457963 Ry
     correction to one-el term =       3.11404348 Ry

     iteration #  3     ecut=    30.00 Ry     beta= 0.70
     Davidson diagonalization with overlap
     ethr =  9.67E-07,  avg # of iterations =  2.0

     negative rho (up, down):  1.464E-04 0.000E+00

     add environment contribution to local potential

     total cpu time spent up to now is      102.2 secs

     total energy              =     -33.32429992 Ry
     estimated scf accuracy    <       0.00000046 Ry
     electrostatic embedding   =      -0.20513288 Ry
     cavitation energy         =       0.01037774 Ry
     PV energy                 =      -0.00457963 Ry
     correction to one-el term =       3.11017606 Ry

     iteration #  4     ecut=    30.00 Ry     beta= 0.70
     Davidson diagonalization with overlap
     ethr =  5.71E-09,  avg # of iterations =  3.0

     negative rho (up, down):  1.442E-04 0.000E+00

     add environment contribution to local potential

     total cpu time spent up to now is      106.2 secs

     total energy              =     -33.32430024 Ry
     estimated scf accuracy    <       0.00000047 Ry
     electrostatic embedding   =      -0.20507336 Ry
     cavitation energy         =       0.01037774 Ry
     PV energy                 =      -0.00457963 Ry
     correction to one-el term =       3.10949814 Ry

     iteration #  5     ecut=    30.00 Ry     beta= 0.70
     Davidson diagonalization with overlap
     ethr =  5.71E-09,  avg # of iterations =  2.0

     negative rho (up, down):  1.434E-04 0.000E+00

     the potential shift due to the Gaussian-smeared nuclei is    -0.0187 ev

     total cpu time spent up to now is      107.9 secs

     End of self-consistent calculation

          k = 0.0000 0.0000 0.0000 ( 22119 PWs)   bands (ev):

   -21.5407  -8.8786  -5.4363  -5.4363

     occupation numbers 
     1.0000   1.0000   1.0000   1.0000

     highest occupied level (ev):    -5.4363

!    total energy              =     -33.32430035 Ry
     estimated scf accuracy    <          2.7E-09 Ry

     The total energy is the sum of the following terms:
     one-electron contribution =     -59.79879640 Ry
     hartree contribution      =      32.13026897 Ry
     xc contribution           =      -8.12173812 Ry
     ewald contribution        =      -0.44455418 Ry
     electrostatic embedding   =      -0.20511409 Ry
     cavitation energy         =       0.01037775 Ry
     PV energy                 =      -0.00457964 Ry
     correction to one-el term =       3.10983536 Ry

     WARNING: you are using the parabolic pbc correction;
              the potential shift above must be added to 
              band and Fermi energies.

     convergence has been achieved in   5 iterations
     The global environment contribution to forces
     atom    1 type  2   force =     0.38758370   -0.00000001   -0.00000001
     atom    2 type  1   force =     0.10158965   -0.00000000   -0.00000000


     Forces acting on atoms (cartesian axes, Ry/au):

     atom    1 type  2   force =    -0.00302609    0.00000000    0.00000000
     atom    2 type  1   force =     0.00302609    0.00000000    0.00000000
     The non-local contrib.  to forces
     atom    1 type  2   force =     1.66319341    0.00000000    0.00000000
     atom    2 type  1   force =    -0.18896452    0.00000000    0.00000000
     The ionic contribution  to forces
     atom    1 type  2   force =    -3.50456505    0.00000000   -0.00000000
     atom    2 type  1   force =     3.50456505   -0.00000000   -0.00000000
     The local contribution  to forces
     atom    1 type  2   force =     1.44734239    0.00000000    0.00000000
     atom    2 type  1   force =    -3.41759608    0.00000000    0.00000000
     The core correction contribution to forces
     atom    1 type  2   force =     0.00000000    0.00000000    0.00000000
     atom    2 type  1   force =     0.00000000    0.00000000    0.00000000
     The Hubbard contrib.    to forces
     atom    1 type  2   force =     0.00000000    0.00000000    0.00000000
     atom    2 type  1   force =     0.00000000    0.00000000    0.00000000
     The SCF correction term to forces
     atom    1 type  2   force =    -0.00000317   -0.00000000    0.00000000
     atom    2 type  1   force =     0.00000933   -0.00000000    0.00000000

     Total force =     0.004280     Total SCF correction =     0.000010
     Energy error            =      1.7E-05
     Gradient error          =      3.0E-03

     bfgs converged in   3 scf cycles and   1 bfgs steps
     (criteria: energy <  1.0E-04 Ry, force <  5.0E-03 Ry/Bohr)

     End of BFGS Geometry Optimization

     Final energy   =     -33.3243003455 Ry

     File /home/mat/q-e/tempdir/ho.bfgs deleted, as requested
Begin final coordinates

ATOMIC_POSITIONS (bohr)
O             9.9963501221       10.0000000000       10.0000000000
H            11.8436498779       10.0000000000       10.0000000000
End final coordinates



     Writing output data file /home/mat/q-e/tempdir/ho.save/

     init_run     :      2.61s CPU      2.87s WALL (       1 calls)
     electrons    :     85.26s CPU     89.17s WALL (       3 calls)
     update_pot   :      0.95s CPU      0.99s WALL (       2 calls)
     forces       :      9.43s CPU      9.86s WALL (       3 calls)

     Called by init_run:
     wfcinit      :      0.02s CPU      0.02s WALL (       1 calls)
     wfcinit:atom :      0.00s CPU      0.00s WALL (       1 calls)
     wfcinit:wfcr :      0.02s CPU      0.02s WALL (       1 calls)
     potinit      :      1.34s CPU      1.46s WALL (       1 calls)
     hinit0       :      0.80s CPU      0.84s WALL (       1 calls)

     Called by electrons:
     c_bands      :      1.30s CPU      1.32s WALL (      25 calls)
     sum_band     :      4.31s CPU      5.24s WALL (      25 calls)
     v_of_rho     :      7.89s CPU      8.22s WALL (      28 calls)
     v_h          :      0.68s CPU      0.73s WALL (      28 calls)
     v_xc         :      7.20s CPU      7.49s WALL (      28 calls)
     newd         :      3.27s CPU      4.33s WALL (      28 calls)
     mix_rho      :      1.17s CPU      1.21s WALL (      25 calls)

     Called by c_bands:
     init_us_2    :      0.06s CPU      0.06s WALL (      51 calls)
     cegterg      :      1.25s CPU      1.27s WALL (      25 calls)

     Called by sum_band:
     sum_band:wei :      0.00s CPU      0.00s WALL (      25 calls)
     sum_band:loo :      0.22s CPU      0.24s WALL (      25 calls)
     sum_band:buf :      0.00s CPU      0.00s WALL (      25 calls)
     sum_band:ini :      0.03s CPU      0.03s WALL (      25 calls)
     sum_band:cal :      0.01s CPU      0.01s WALL (      25 calls)
     sum_band:bec :      0.00s CPU      0.00s WALL (      25 calls)
     addusdens    :      3.16s CPU      4.02s WALL (      25 calls)
     addusd:skk   :      0.04s CPU      0.04s WALL (      50 calls)
     addusd:dgemm :      0.95s CPU      1.70s WALL (      50 calls)
     addusd:qvan2 :      1.48s CPU      1.48s WALL (      50 calls)

     Called by *egterg:
     cdiaghg      :      0.00s CPU      0.00s WALL (      76 calls)
     cegterg:over :      0.03s CPU      0.03s WALL (      53 calls)
     cegterg:upda :      0.02s CPU      0.02s WALL (      53 calls)
     cegterg:last :      0.04s CPU      0.04s WALL (      53 calls)
     h_psi        :      1.12s CPU      1.14s WALL (      79 calls)
     s_psi        :      0.03s CPU      0.03s WALL (      79 calls)
     g_psi        :      0.00s CPU      0.00s WALL (      53 calls)

     Called by h_psi:
     h_psi:calbec :      0.03s CPU      0.03s WALL (      79 calls)
     vloc_psi     :      1.05s CPU      1.07s WALL (      79 calls)
     add_vuspsi   :      0.03s CPU      0.03s WALL (      79 calls)

     General routines
     calbec       :      0.05s CPU      0.05s WALL (     116 calls)
     fft          :      8.02s CPU      8.31s WALL (     366 calls)
     ffts         :      0.16s CPU      0.17s WALL (      53 calls)
     fftw         :      1.12s CPU      1.15s WALL (     708 calls)
     interpolate  :      0.71s CPU      0.72s WALL (      28 calls)

     Parallel routines
     fft_scatt_xy :      0.85s CPU      0.85s WALL (    1127 calls)
     fft_scatt_yz :      2.48s CPU      2.71s WALL (    1127 calls)

     Environ routines

     PWSCF        :   1m46.35s CPU   1m51.29s WALL


   This run was terminated on:  10:56:59   3Feb2022            

=------------------------------------------------------------------------------=
   JOB DONE.
=------------------------------------------------------------------------------=
