
     Program PWSCF v.7.0 starts on  3May2022 at  7:27: 2 

     This program is part of the open-source Quantum ESPRESSO suite
     for quantum simulation of materials; please cite
         "P. Giannozzi et al., J. Phys.:Condens. Matter 21 395502 (2009);
         "P. Giannozzi et al., J. Phys.:Condens. Matter 29 465901 (2017);
         "P. Giannozzi et al., J. Chem. Phys. 152 154105 (2020);
          URL http://www.quantum-espresso.org", 
     in publications or presentations arising from this work. More details at
     http://www.quantum-espresso.org/quote

     Parallel version (MPI), running on     1 processors

     MPI processes distributed on     1 nodes
     19297 MiB available memory on the printing compute node when the environment starts

     Waiting for input...
     Reading input from standard input
Warning: card &CELL ignored
Warning: card / ignored

     Current dimensions of program PWSCF are:
     Max number of different atomic species (ntypx) = 10
     Max number of k-points (npk) =  40000
     Max angular momentum in pseudopotentials (lmaxx) =  4

     Reading input from environ.in:
     * using electronic solvent mode
     * setting boundary derivatives method to SCCS default
     
     file H.pbe-rrkjus.UPF: wavefunction(s)  1S renormalized
     file O.pbe-rrkjus.UPF: wavefunction(s)  2S renormalized

     Subspace diagonalization in iterative solution of the eigenvalue problem:
     a serial algorithm will be used


     G-vector sticks info
     --------------------
     sticks:   dense  smooth     PW     G-vecs:    dense   smooth      PW
     Sum        9549    3809    949               701475   177509   22119

     Using Slab Decomposition



     bravais-lattice index     =            1
     lattice parameter (alat)  =      20.0000  a.u.
     unit-cell volume          =    8000.0000 (a.u.)^3
     number of atoms/cell      =            3
     number of atomic types    =            2
     number of electrons       =         8.00
     number of Kohn-Sham states=            4
     kinetic-energy cutoff     =      30.0000  Ry
     charge density cutoff     =     300.0000  Ry
     scf convergence threshold =      5.0E-09
     mixing beta               =       0.7000
     number of iterations used =            8  plain     mixing
     energy convergence thresh.=      1.0E-04
     force convergence thresh. =      5.0E-03
     Exchange-correlation= SLA  PW   PBE  PBE
                           (   1   4   3   4   0   0   0)
     nstep                     =           50


     ================================================================================

                                  Environ Setup Summary

     ================================================================================

     Please cite

          O. Andreussi, I. Dabo and N. Marzari, J. Chem. Phys. 136, 064102 (2012)

     in publications or presentations arising from this work.

     ================================================================================

     Parameters
     ==========

     compensation onset threshold      =               0.1000E+00

     Electrostatic Setup
     ===================

     electrostatic problem to solve    =                  poisson
     numerical solver adopted          =                   direct
     type of auxiliary density adopted =                     none
     numerical core for poisson        =                      fft
     type of pbc corrections           =                parabolic
     numerical core for corrections    =                      1da

     ================================================================================


     celldm(1)=  20.000000  celldm(2)=   0.000000  celldm(3)=   0.000000
     celldm(4)=   0.000000  celldm(5)=   0.000000  celldm(6)=   0.000000

     crystal axes: (cart. coord. in units of alat)
               a(1) = (   1.000000   0.000000   0.000000 )  
               a(2) = (   0.000000   1.000000   0.000000 )  
               a(3) = (   0.000000   0.000000   1.000000 )  

     reciprocal axes: (cart. coord. in units 2 pi/alat)
               b(1) = (  1.000000  0.000000  0.000000 )  
               b(2) = (  0.000000  1.000000  0.000000 )  
               b(3) = (  0.000000  0.000000  1.000000 )  


     PseudoPot. # 1 for H  read from file:
     MD5 check sum: 2d52a7f45632fd764c17cc6affed14c8
     Pseudo is Ultrasoft, Zval =  1.0
     Generated by new atomic code, or converted to UPF format
     Using radial grid of 1061 points,  2 beta functions with: 
                l(1) =   0
                l(2) =   0
     Q(r) pseudized with 0 coefficients 


     PseudoPot. # 2 for O  read from file:
     MD5 check sum: fadcf19ee70a498d3030e2e79cf929a4
     Pseudo is Ultrasoft, Zval =  6.0
     Generated by new atomic code, or converted to UPF format
     Using radial grid of 1269 points,  4 beta functions with: 
                l(1) =   0
                l(2) =   0
                l(3) =   1
                l(4) =   1
     Q(r) pseudized with 0 coefficients 


     atomic species   valence    mass     pseudopotential
        H              1.00     1.00800     H ( 1.00)
        O              6.00    15.99900     O ( 1.00)

      2 Sym. Ops. (no inversion) found


                                    s                        frac. trans.

      isym =  1     identity                                     

 cryst.   s( 1) = (     1          0          0      )
                  (     0          1          0      )
                  (     0          0          1      )

 cart.    s( 1) = (  1.0000000  0.0000000  0.0000000 )
                  (  0.0000000  1.0000000  0.0000000 )
                  (  0.0000000  0.0000000  1.0000000 )


      isym =  2     inv. 180 deg rotation - cart. axis [0,0,1]   

 cryst.   s( 2) = (     1          0          0      )
                  (     0          1          0      )
                  (     0          0         -1      )

 cart.    s( 2) = (  1.0000000  0.0000000  0.0000000 )
                  (  0.0000000  1.0000000  0.0000000 )
                  (  0.0000000  0.0000000 -1.0000000 )


     point group C_s (m)    
     there are  2 classes
     the character table:

       E     s    
A'     1.00  1.00
A''    1.00 -1.00

     the symmetry operations in each class and the name of the first element:

     E        1
          identity                                               
     s        2
          inv. 180 deg rotation - cart. axis [0,0,1]             

   Cartesian axes

     site n.     atom                  positions (alat units)
         1           O   tau(   1) = (   0.5140000   0.5255000   0.5000000  )
         2           H   tau(   2) = (   0.5935000   0.4785000   0.5000000  )
         3           H   tau(   3) = (   0.4495000   0.4600000   0.5000000  )

   Crystallographic axes

     site n.     atom                  positions (cryst. coord.)
         1           O   tau(   1) = (  0.5140000  0.5255000  0.5000000  )
         2           H   tau(   2) = (  0.5935000  0.4785000  0.5000000  )
         3           H   tau(   3) = (  0.4495000  0.4600000  0.5000000  )

     number of k points=     1
                       cart. coord. in units 2pi/alat
        k(    1) = (   0.0000000   0.0000000   0.0000000), wk =   2.0000000

                       cryst. coord.
        k(    1) = (   0.0000000   0.0000000   0.0000000), wk =   2.0000000

     Dense  grid:   701475 G-vectors     FFT dimensions: ( 120, 120, 120)

     Smooth grid:   177509 G-vectors     FFT dimensions: (  72,  72,  72)

     Dynamical RAM for                 wfc:       1.35 MB

     Dynamical RAM for     wfc (w. buffer):       1.35 MB

     Dynamical RAM for           str. fact:      21.41 MB

     Dynamical RAM for           local pot:       0.00 MB

     Dynamical RAM for          nlocal pot:       4.06 MB

     Dynamical RAM for                qrad:       0.79 MB

     Dynamical RAM for          rho,v,vnew:      71.66 MB

     Dynamical RAM for               rhoin:      23.89 MB

     Dynamical RAM for            rho*nmix:     171.26 MB

     Dynamical RAM for           G-vectors:      41.49 MB

     Dynamical RAM for          h,s,v(r/c):       0.00 MB

     Dynamical RAM for          <psi|beta>:       0.00 MB

     Dynamical RAM for                 psi:       2.71 MB

     Dynamical RAM for                hpsi:       2.71 MB

     Dynamical RAM for                spsi:       2.71 MB

     Dynamical RAM for      wfcinit/wfcrot:       4.07 MB

     Dynamical RAM for           addusdens:     481.66 MB

     Dynamical RAM for          addusforce:     508.43 MB

     Estimated static dynamical RAM per process >     262.69 MB

     Estimated max dynamical RAM per process >     942.38 MB

     Initial potential from superposition of free atoms

     starting charge       7.8076, renormalised to       8.0000

     negative rho (up, down):  7.946E-04 0.000E+00
     Starting wfcs are    6 randomized atomic wfcs

     total cpu time spent up to now is        2.4 secs

     Self-consistent Calculation

     iteration #  1     ecut=    30.00 Ry     beta= 0.70
     Davidson diagonalization with overlap

---- Real-time Memory Report at c_bands before calling an iterative solver
          1093 MiB given to the printing process from OS
             0 MiB allocation reported by mallinfo(arena+hblkhd)
         18717 MiB available memory on the node where the printing process lives
------------------
     ethr =  1.00E-02,  avg # of iterations =  2.0

     negative rho (up, down):  2.566E-04 0.000E+00

     total cpu time spent up to now is        4.0 secs

     total energy              =     -34.06661609 Ry
     estimated scf accuracy    <       0.68552093 Ry
     electrostatic embedding   =       0.00000000 Ry
     correction to one-el term =      -0.00000000 Ry

     iteration #  2     ecut=    30.00 Ry     beta= 0.70
     Davidson diagonalization with overlap

---- Real-time Memory Report at c_bands before calling an iterative solver
          1154 MiB given to the printing process from OS
             0 MiB allocation reported by mallinfo(arena+hblkhd)
         18665 MiB available memory on the node where the printing process lives
------------------
     ethr =  8.57E-03,  avg # of iterations =  2.0

     negative rho (up, down):  2.636E-03 0.000E+00

     total cpu time spent up to now is        6.0 secs

     total energy              =     -34.20403245 Ry
     estimated scf accuracy    <       0.36396179 Ry
     electrostatic embedding   =       0.00000000 Ry
     correction to one-el term =      -0.00000000 Ry

     iteration #  3     ecut=    30.00 Ry     beta= 0.70
     Davidson diagonalization with overlap

---- Real-time Memory Report at c_bands before calling an iterative solver
          1176 MiB given to the printing process from OS
             0 MiB allocation reported by mallinfo(arena+hblkhd)
         18655 MiB available memory on the node where the printing process lives
------------------
     ethr =  4.55E-03,  avg # of iterations =  2.0

     negative rho (up, down):  4.334E-04 0.000E+00

     add environment contribution to local potential

     total cpu time spent up to now is        8.1 secs

     total energy              =     -34.26680912 Ry
     estimated scf accuracy    <       0.00828939 Ry
     electrostatic embedding   =       0.00000000 Ry
     correction to one-el term =      -0.00000000 Ry

     iteration #  4     ecut=    30.00 Ry     beta= 0.70
     Davidson diagonalization with overlap

---- Real-time Memory Report at c_bands before calling an iterative solver
          1181 MiB given to the printing process from OS
             0 MiB allocation reported by mallinfo(arena+hblkhd)
         18649 MiB available memory on the node where the printing process lives
------------------
     ethr =  1.04E-04,  avg # of iterations =  2.0

     negative rho (up, down):  1.178E-04 0.000E+00

     add environment contribution to local potential

     total cpu time spent up to now is       10.3 secs

     total energy              =     -34.26801569 Ry
     estimated scf accuracy    <       0.00084811 Ry
     electrostatic embedding   =       0.00025692 Ry
     correction to one-el term =       0.04695301 Ry

     iteration #  5     ecut=    30.00 Ry     beta= 0.70
     Davidson diagonalization with overlap

---- Real-time Memory Report at c_bands before calling an iterative solver
          1187 MiB given to the printing process from OS
             0 MiB allocation reported by mallinfo(arena+hblkhd)
         18643 MiB available memory on the node where the printing process lives
------------------
     ethr =  1.06E-05,  avg # of iterations =  2.0

     negative rho (up, down):  1.898E-04 0.000E+00

     add environment contribution to local potential

     total cpu time spent up to now is       12.6 secs

     total energy              =     -34.26821335 Ry
     estimated scf accuracy    <       0.00001893 Ry
     electrostatic embedding   =       0.00027327 Ry
     correction to one-el term =       0.04711409 Ry

     iteration #  6     ecut=    30.00 Ry     beta= 0.70
     Davidson diagonalization with overlap

---- Real-time Memory Report at c_bands before calling an iterative solver
          1192 MiB given to the printing process from OS
             0 MiB allocation reported by mallinfo(arena+hblkhd)
         18636 MiB available memory on the node where the printing process lives
------------------
     ethr =  2.37E-07,  avg # of iterations =  2.0

     negative rho (up, down):  2.084E-04 0.000E+00

     add environment contribution to local potential

     total cpu time spent up to now is       15.1 secs

     total energy              =     -34.26821516 Ry
     estimated scf accuracy    <       0.00000036 Ry
     electrostatic embedding   =       0.00028068 Ry
     correction to one-el term =       0.04620086 Ry

     iteration #  7     ecut=    30.00 Ry     beta= 0.70
     Davidson diagonalization with overlap

---- Real-time Memory Report at c_bands before calling an iterative solver
          1198 MiB given to the printing process from OS
             0 MiB allocation reported by mallinfo(arena+hblkhd)
         18625 MiB available memory on the node where the printing process lives
------------------
     ethr =  4.45E-09,  avg # of iterations =  2.0

     negative rho (up, down):  2.146E-04 0.000E+00

     add environment contribution to local potential

     total cpu time spent up to now is       17.4 secs

     total energy              =     -34.26821521 Ry
     estimated scf accuracy    <       0.00000004 Ry
     electrostatic embedding   =       0.00027992 Ry
     correction to one-el term =       0.04616108 Ry

     iteration #  8     ecut=    30.00 Ry     beta= 0.70
     Davidson diagonalization with overlap

---- Real-time Memory Report at c_bands before calling an iterative solver
          1203 MiB given to the printing process from OS
             0 MiB allocation reported by mallinfo(arena+hblkhd)
         18620 MiB available memory on the node where the printing process lives
------------------
     ethr =  5.62E-10,  avg # of iterations =  2.0

     negative rho (up, down):  2.152E-04 0.000E+00

     add environment contribution to local potential

     total cpu time spent up to now is       19.9 secs

     total energy              =     -34.26821520 Ry
     estimated scf accuracy    <       0.00000002 Ry
     electrostatic embedding   =       0.00027943 Ry
     correction to one-el term =       0.04616196 Ry

     iteration #  9     ecut=    30.00 Ry     beta= 0.70
     Davidson diagonalization with overlap

---- Real-time Memory Report at c_bands before calling an iterative solver
          1208 MiB given to the printing process from OS
             0 MiB allocation reported by mallinfo(arena+hblkhd)
         18637 MiB available memory on the node where the printing process lives
------------------
     ethr =  3.02E-10,  avg # of iterations =  2.0

     negative rho (up, down):  2.149E-04 0.000E+00

     the potential shift due to the Gaussian-smeared nuclei is    -0.0214 ev

     total cpu time spent up to now is       21.9 secs

     End of self-consistent calculation

          k = 0.0000 0.0000 0.0000 ( 22119 PWs)   bands (ev):

   -25.2616 -13.0581  -9.2455  -7.2003

     occupation numbers 
     1.0000   1.0000   1.0000   1.0000

     highest occupied level (ev):    -7.2003

!    total energy              =     -34.26821520 Ry
     estimated scf accuracy    <          4.8E-10 Ry

     The total energy is the sum of the following terms:
     one-electron contribution =     -63.98934836 Ry
     hartree contribution      =      33.41413538 Ry
     xc contribution           =      -8.39841495 Ry
     ewald contribution        =       4.65897432 Ry
     electrostatic embedding   =       0.00027964 Ry
     correction to one-el term =       0.04615876 Ry

     WARNING: you are using the parabolic pbc correction;
              the potential shift above must be added to 
              band and Fermi energies.

     convergence has been achieved in   9 iterations
     The dielectric solvent contribution to forces
     atom    1 type  2   force =    -0.00060104    0.00455230    0.00000001
     atom    2 type  1   force =    -0.00010017    0.00075872    0.00000000
     atom    3 type  1   force =    -0.00010017    0.00075872    0.00000000


     Forces acting on atoms (cartesian axes, Ry/au):

     atom    1 type  2   force =     0.00759846   -0.00267020    0.00000000
     atom    2 type  1   force =    -0.00311579    0.00426104    0.00000000
     atom    3 type  1   force =    -0.00448267   -0.00159085    0.00000000
     The non-local contrib.  to forces
     atom    1 type  2   force =     0.32277093   -2.49383075    0.00000000
     atom    2 type  1   force =    -0.17234197    0.09316756    0.00000000
     atom    3 type  1   force =     0.14469678    0.13621824    0.00000000
     The ionic contribution  to forces
     atom    1 type  2   force =    -0.53482929    4.30556355    0.00000000
     atom    2 type  1   force =     3.24976518   -1.75434632   -0.00000000
     atom    3 type  1   force =    -2.71493589   -2.55121723    0.00000000
     The local contribution  to forces
     atom    1 type  2   force =     0.22027406   -1.81900235    0.00000000
     atom    2 type  1   force =    -3.08042702    1.66466862    0.00000000
     atom    3 type  1   force =     2.56586651    2.41263663    0.00000000
     The core correction contribution to forces
     atom    1 type  2   force =     0.00000000    0.00000000    0.00000000
     atom    2 type  1   force =     0.00000000    0.00000000    0.00000000
     atom    3 type  1   force =     0.00000000    0.00000000    0.00000000
     The Hubbard contrib.    to forces
     atom    1 type  2   force =     0.00000000    0.00000000    0.00000000
     atom    2 type  1   force =     0.00000000    0.00000000    0.00000000
     atom    3 type  1   force =     0.00000000    0.00000000    0.00000000
     The SCF correction term to forces
     atom    1 type  2   force =    -0.00000561    0.00003636    0.00000000
     atom    2 type  1   force =    -0.00000122    0.00000178    0.00000000
     atom    3 type  1   force =     0.00000069    0.00000210    0.00000000

     Total force =     0.010740     Total SCF correction =     0.000037

     BFGS Geometry Optimization
     Energy error            =      0.0E+00 Ry
     Gradient error          =      7.6E-03 Ry/Bohr

     number of scf cycles    =   1
     number of bfgs steps    =   0

     energy             new  =     -34.2682151950 Ry

     new trust radius        =       0.0080539805 bohr
     new conv_thr            =       0.0000000050 Ry


ATOMIC_POSITIONS (bohr)
O            10.2875984631       10.5073298012       10.0000000000
H            11.8668842064        9.5742610444       10.0000000000
H             8.9855173305        9.1984091544       10.0000000000



     NEW-OLD atomic charge density approx. for the potential

     negative rho (up, down):  3.268E-04 0.000E+00

     add environment contribution to local potential

     total cpu time spent up to now is       25.5 secs

     Self-consistent Calculation

     iteration #  1     ecut=    30.00 Ry     beta= 0.70
     Davidson diagonalization with overlap

---- Real-time Memory Report at c_bands before calling an iterative solver
          1214 MiB given to the printing process from OS
             0 MiB allocation reported by mallinfo(arena+hblkhd)
         18689 MiB available memory on the node where the printing process lives
------------------
     ethr =  1.00E-06,  avg # of iterations =  3.0

     negative rho (up, down):  2.298E-04 0.000E+00

     add environment contribution to local potential

     total cpu time spent up to now is       27.8 secs

     total energy              =     -34.26820319 Ry
     estimated scf accuracy    <       0.00002794 Ry
     electrostatic embedding   =       0.00027926 Ry
     correction to one-el term =       0.04617351 Ry

     iteration #  2     ecut=    30.00 Ry     beta= 0.70
     Davidson diagonalization with overlap

---- Real-time Memory Report at c_bands before calling an iterative solver
          1214 MiB given to the printing process from OS
             0 MiB allocation reported by mallinfo(arena+hblkhd)
         18653 MiB available memory on the node where the printing process lives
------------------
     ethr =  3.49E-07,  avg # of iterations =  2.0

     negative rho (up, down):  2.192E-04 0.000E+00

     add environment contribution to local potential

     total cpu time spent up to now is       29.9 secs

     total energy              =     -34.26820797 Ry
     estimated scf accuracy    <       0.00000697 Ry
     electrostatic embedding   =       0.00027920 Ry
     correction to one-el term =       0.04610657 Ry

     iteration #  3     ecut=    30.00 Ry     beta= 0.70
     Davidson diagonalization with overlap

---- Real-time Memory Report at c_bands before calling an iterative solver
          1214 MiB given to the printing process from OS
             0 MiB allocation reported by mallinfo(arena+hblkhd)
         18644 MiB available memory on the node where the printing process lives
------------------
     ethr =  8.72E-08,  avg # of iterations =  2.0

     negative rho (up, down):  2.154E-04 0.000E+00

     add environment contribution to local potential

     total cpu time spent up to now is       32.0 secs

     total energy              =     -34.26820970 Ry
     estimated scf accuracy    <       0.00000075 Ry
     electrostatic embedding   =       0.00027812 Ry
     correction to one-el term =       0.04615470 Ry

     iteration #  4     ecut=    30.00 Ry     beta= 0.70
     Davidson diagonalization with overlap

---- Real-time Memory Report at c_bands before calling an iterative solver
          1214 MiB given to the printing process from OS
             0 MiB allocation reported by mallinfo(arena+hblkhd)
         18638 MiB available memory on the node where the printing process lives
------------------
     ethr =  9.37E-09,  avg # of iterations =  2.0

     negative rho (up, down):  2.150E-04 0.000E+00

     add environment contribution to local potential

     total cpu time spent up to now is       34.0 secs

     total energy              =     -34.26820980 Ry
     estimated scf accuracy    <       0.00000001 Ry
     electrostatic embedding   =       0.00027823 Ry
     correction to one-el term =       0.04614290 Ry

     iteration #  5     ecut=    30.00 Ry     beta= 0.70
     Davidson diagonalization with overlap

---- Real-time Memory Report at c_bands before calling an iterative solver
          1214 MiB given to the printing process from OS
             0 MiB allocation reported by mallinfo(arena+hblkhd)
         18633 MiB available memory on the node where the printing process lives
------------------
     ethr =  1.57E-10,  avg # of iterations =  2.0

     negative rho (up, down):  2.150E-04 0.000E+00

     the potential shift due to the Gaussian-smeared nuclei is    -0.0214 ev

     total cpu time spent up to now is       36.0 secs

     End of self-consistent calculation

          k = 0.0000 0.0000 0.0000 ( 22119 PWs)   bands (ev):

   -25.2703 -13.0849  -9.2320  -7.2016

     occupation numbers 
     1.0000   1.0000   1.0000   1.0000

     highest occupied level (ev):    -7.2016

!    total energy              =     -34.26820980 Ry
     estimated scf accuracy    <          1.8E-09 Ry

     The total energy is the sum of the following terms:
     one-electron contribution =     -64.01853567 Ry
     hartree contribution      =      33.42846505 Ry
     xc contribution           =      -8.40080953 Ry
     ewald contribution        =       4.67624926 Ry
     electrostatic embedding   =       0.00027823 Ry
     correction to one-el term =       0.04614286 Ry

     WARNING: you are using the parabolic pbc correction;
              the potential shift above must be added to 
              band and Fermi energies.

     convergence has been achieved in   5 iterations
     The dielectric solvent contribution to forces
     atom    1 type  2   force =    -0.00057082    0.00454447    0.00000001
     atom    2 type  1   force =    -0.00009514    0.00075741    0.00000000
     atom    3 type  1   force =    -0.00009514    0.00075741    0.00000000


     Forces acting on atoms (cartesian axes, Ry/au):

     atom    1 type  2   force =    -0.01005132   -0.00100489    0.00000000
     atom    2 type  1   force =     0.00792297   -0.00307306    0.00000000
     atom    3 type  1   force =     0.00212835    0.00407795    0.00000000
     The non-local contrib.  to forces
     atom    1 type  2   force =     0.32160615   -2.49030398    0.00000000
     atom    2 type  1   force =    -0.17608564    0.09514154    0.00000000
     atom    3 type  1   force =     0.14367301    0.13362128    0.00000000
     The ionic contribution  to forces
     atom    1 type  2   force =    -0.58584795    4.29602204   -0.00000000
     atom    2 type  1   force =     3.29217908   -1.77809219    0.00000000
     atom    3 type  1   force =    -2.70633112   -2.51792985    0.00000000
     The local contribution  to forces
     atom    1 type  2   force =     0.25481005   -1.81131050    0.00000000
     atom    2 type  1   force =    -3.10805252    1.67910587    0.00000000
     atom    3 type  1   force =     2.56489510    2.38761344    0.00000000
     The core correction contribution to forces
     atom    1 type  2   force =     0.00000000    0.00000000    0.00000000
     atom    2 type  1   force =     0.00000000    0.00000000    0.00000000
     atom    3 type  1   force =     0.00000000    0.00000000    0.00000000
     The Hubbard contrib.    to forces
     atom    1 type  2   force =     0.00000000    0.00000000    0.00000000
     atom    2 type  1   force =     0.00000000    0.00000000    0.00000000
     atom    3 type  1   force =     0.00000000    0.00000000    0.00000000
     The SCF correction term to forces
     atom    1 type  2   force =    -0.00003168    0.00003287   -0.00000000
     atom    2 type  1   force =    -0.00000575    0.00000409   -0.00000000
     atom    3 type  1   force =     0.00000356    0.00000545   -0.00000000

     Total force =     0.013979     Total SCF correction =     0.000047
     Energy error            =      5.4E-06 Ry
     Gradient error          =      1.0E-02 Ry/Bohr

     number of scf cycles    =   2
     number of bfgs steps    =   1

     energy             old  =     -34.2682151950 Ry
     energy             new  =     -34.2682098047 Ry

     CASE: energy            _new > energy            _old

     new trust radius        =       0.0038472200 bohr
     new conv_thr            =       0.0000000050 Ry


ATOMIC_POSITIONS (bohr)
O            10.2836296287       10.5087245012       10.0000000000
H            11.8685116498        9.5720354128       10.0000000000
H             8.9878587215        9.1992400859       10.0000000000



     NEW-OLD atomic charge density approx. for the potential

     negative rho (up, down):  2.578E-04 0.000E+00

     add environment contribution to local potential

     total cpu time spent up to now is       40.0 secs

     Self-consistent Calculation

     iteration #  1     ecut=    30.00 Ry     beta= 0.70
     Davidson diagonalization with overlap

---- Real-time Memory Report at c_bands before calling an iterative solver
          1214 MiB given to the printing process from OS
             0 MiB allocation reported by mallinfo(arena+hblkhd)
         18683 MiB available memory on the node where the printing process lives
------------------
     ethr =  1.00E-06,  avg # of iterations =  3.0

     Threshold (ethr) on eigenvalues was too large:
     Diagonalizing with lowered threshold

     Davidson diagonalization with overlap

---- Real-time Memory Report at c_bands before calling an iterative solver
          1214 MiB given to the printing process from OS
             0 MiB allocation reported by mallinfo(arena+hblkhd)
         18651 MiB available memory on the node where the printing process lives
------------------
     ethr =  9.02E-08,  avg # of iterations =  1.0

     negative rho (up, down):  2.199E-04 0.000E+00

     add environment contribution to local potential

     total cpu time spent up to now is       43.1 secs

     total energy              =     -34.26824112 Ry
     estimated scf accuracy    <       0.00000763 Ry
     electrostatic embedding   =       0.00027837 Ry
     correction to one-el term =       0.04613673 Ry

     iteration #  2     ecut=    30.00 Ry     beta= 0.70
     Davidson diagonalization with overlap

---- Real-time Memory Report at c_bands before calling an iterative solver
          1214 MiB given to the printing process from OS
             0 MiB allocation reported by mallinfo(arena+hblkhd)
         18601 MiB available memory on the node where the printing process lives
------------------
     ethr =  9.54E-08,  avg # of iterations =  2.0

     negative rho (up, down):  2.165E-04 0.000E+00

     add environment contribution to local potential

     total cpu time spent up to now is       45.3 secs

     total energy              =     -34.26824248 Ry
     estimated scf accuracy    <       0.00000161 Ry
     electrostatic embedding   =       0.00027847 Ry
     correction to one-el term =       0.04616938 Ry

     iteration #  3     ecut=    30.00 Ry     beta= 0.70
     Davidson diagonalization with overlap

---- Real-time Memory Report at c_bands before calling an iterative solver
          1214 MiB given to the printing process from OS
             0 MiB allocation reported by mallinfo(arena+hblkhd)
         18561 MiB available memory on the node where the printing process lives
------------------
     ethr =  2.01E-08,  avg # of iterations =  2.0

     negative rho (up, down):  2.152E-04 0.000E+00

     add environment contribution to local potential

     total cpu time spent up to now is       47.5 secs

     total energy              =     -34.26824286 Ry
     estimated scf accuracy    <       0.00000022 Ry
     electrostatic embedding   =       0.00027899 Ry
     correction to one-el term =       0.04614553 Ry

     iteration #  4     ecut=    30.00 Ry     beta= 0.70
     Davidson diagonalization with overlap

---- Real-time Memory Report at c_bands before calling an iterative solver
          1214 MiB given to the printing process from OS
             0 MiB allocation reported by mallinfo(arena+hblkhd)
         18574 MiB available memory on the node where the printing process lives
------------------
     ethr =  2.74E-09,  avg # of iterations =  2.0

     negative rho (up, down):  2.149E-04 0.000E+00

     the potential shift due to the Gaussian-smeared nuclei is    -0.0214 ev

     total cpu time spent up to now is       49.3 secs

     End of self-consistent calculation

          k = 0.0000 0.0000 0.0000 ( 22119 PWs)   bands (ev):

   -25.2658 -13.0711  -9.2393  -7.2012

     occupation numbers 
     1.0000   1.0000   1.0000   1.0000

     highest occupied level (ev):    -7.2012

!    total energy              =     -34.26824291 Ry
     estimated scf accuracy    <          3.6E-09 Ry

     The total energy is the sum of the following terms:
     one-electron contribution =     -64.00328516 Ry
     hartree contribution      =      33.42103883 Ry
     xc contribution           =      -8.39956800 Ry
     ewald contribution        =       4.66714051 Ry
     electrostatic embedding   =       0.00027891 Ry
     correction to one-el term =       0.04615201 Ry

     WARNING: you are using the parabolic pbc correction;
              the potential shift above must be added to 
              band and Fermi energies.

     convergence has been achieved in   4 iterations
     The dielectric solvent contribution to forces
     atom    1 type  2   force =    -0.00058637    0.00454813    0.00000001
     atom    2 type  1   force =    -0.00009773    0.00075802    0.00000000
     atom    3 type  1   force =    -0.00009773    0.00075802    0.00000000


     Forces acting on atoms (cartesian axes, Ry/au):

     atom    1 type  2   force =    -0.00074075   -0.00195061    0.00000000
     atom    2 type  1   force =     0.00206606    0.00080385    0.00000000
     atom    3 type  1   force =    -0.00132531    0.00114676    0.00000000
     The non-local contrib.  to forces
     atom    1 type  2   force =     0.32223314   -2.49218102    0.00000000
     atom    2 type  1   force =    -0.17412199    0.09410713    0.00000000
     atom    3 type  1   force =     0.14421076    0.13497392    0.00000000
     The ionic contribution  to forces
     atom    1 type  2   force =    -0.55905662    4.30089699   -0.00000000
     atom    2 type  1   force =     3.26991362   -1.76562872   -0.00000000
     atom    3 type  1   force =    -2.71085700   -2.53526827    0.00000000
     The local contribution  to forces
     atom    1 type  2   force =     0.23663334   -1.81524009    0.00000000
     atom    2 type  1   force =    -3.09359857    1.67155785    0.00000000
     atom    3 type  1   force =     2.56545073    2.40067337    0.00000000
     The core correction contribution to forces
     atom    1 type  2   force =     0.00000000    0.00000000    0.00000000
     atom    2 type  1   force =     0.00000000    0.00000000    0.00000000
     atom    3 type  1   force =     0.00000000    0.00000000    0.00000000
     The Hubbard contrib.    to forces
     atom    1 type  2   force =     0.00000000    0.00000000    0.00000000
     atom    2 type  1   force =     0.00000000    0.00000000    0.00000000
     atom    3 type  1   force =     0.00000000    0.00000000    0.00000000
     The SCF correction term to forces
     atom    1 type  2   force =     0.00006307    0.00001587    0.00000000
     atom    2 type  1   force =    -0.00000196    0.00000005   -0.00000000
     atom    3 type  1   force =    -0.00000477    0.00000020   -0.00000000

     Total force =     0.003513     Total SCF correction =     0.000065
     Energy error            =      2.8E-05 Ry
     Gradient error          =      2.1E-03 Ry/Bohr

     bfgs converged in   3 scf cycles and   1 bfgs steps
     (criteria: energy <  1.0E-04 Ry, force <  5.0E-03 Ry/Bohr)

     End of BFGS Geometry Optimization

     Final energy             =     -34.2682429064 Ry

Begin final coordinates

ATOMIC_POSITIONS (bohr)
O            10.2836296287       10.5087245012       10.0000000000
H            11.8685116498        9.5720354128       10.0000000000
H             8.9878587215        9.1992400859       10.0000000000
End final coordinates




     init_run     :      2.18s CPU      2.35s WALL (       1 calls)
     electrons    :     32.84s CPU     39.40s WALL (       3 calls)
     update_pot   :      1.65s CPU      1.76s WALL (       2 calls)
     forces       :      3.51s CPU      4.13s WALL (       3 calls)

     Called by init_run:
     wfcinit      :      0.06s CPU      0.06s WALL (       1 calls)
     wfcinit:atom :      0.00s CPU      0.00s WALL (       1 calls)
     wfcinit:wfcr :      0.04s CPU      0.04s WALL (       1 calls)
     potinit      :      0.66s CPU      0.70s WALL (       1 calls)
     hinit0       :      0.84s CPU      0.85s WALL (       1 calls)

     Called by electrons:
     c_bands      :      2.60s CPU      3.06s WALL (      19 calls)
     sum_band     :      9.31s CPU     11.72s WALL (      19 calls)
     v_of_rho     :     10.70s CPU     11.88s WALL (      21 calls)
     v_h          :      0.68s CPU      0.68s WALL (      21 calls)
     v_xc         :     10.02s CPU     11.19s WALL (      21 calls)
     newd         :      6.35s CPU      8.64s WALL (      21 calls)
     mix_rho      :      1.34s CPU      1.62s WALL (      19 calls)

     Called by c_bands:
     init_us_2    :      0.16s CPU      0.16s WALL (      39 calls)
     init_us_2:cp :      0.16s CPU      0.16s WALL (      39 calls)
     cegterg      :      2.47s CPU      2.92s WALL (      19 calls)

     Called by sum_band:
     sum_band:wei :      0.00s CPU      0.00s WALL (      19 calls)
     sum_band:loo :      0.50s CPU      0.51s WALL (      19 calls)
     sum_band:buf :      0.00s CPU      0.00s WALL (      19 calls)
     sum_band:ini :      0.09s CPU      0.09s WALL (      19 calls)
     sum_band:cal :      0.01s CPU      0.01s WALL (      19 calls)
     sum_band:bec :      0.00s CPU      0.00s WALL (      19 calls)
     addusdens    :      7.34s CPU      9.71s WALL (      19 calls)
     addusd:skk   :      0.21s CPU      0.27s WALL (      38 calls)
     addusd:dgemm :      0.80s CPU      2.76s WALL (      38 calls)
     addusd:qvan2 :      4.39s CPU      4.42s WALL (      38 calls)

     Called by *egterg:
     cdiaghg      :      0.01s CPU      0.01s WALL (      55 calls)
     cegterg:over :      0.05s CPU      0.05s WALL (      39 calls)
     cegterg:upda :      0.04s CPU      0.06s WALL (      39 calls)
     cegterg:last :      0.05s CPU      0.05s WALL (      39 calls)
     h_psi        :      2.26s CPU      2.70s WALL (      59 calls)
     s_psi        :      0.04s CPU      0.04s WALL (      59 calls)
     g_psi        :      0.02s CPU      0.02s WALL (      39 calls)

     Called by h_psi:
     h_psi:calbec :      0.04s CPU      0.04s WALL (      59 calls)
     vloc_psi     :      2.17s CPU      2.57s WALL (      59 calls)
     add_vuspsi   :      0.04s CPU      0.09s WALL (      59 calls)

     General routines
     calbec       :      0.06s CPU      0.06s WALL (      90 calls)
     fft          :      5.69s CPU      5.81s WALL (     276 calls)
     ffts         :      0.17s CPU      0.21s WALL (      40 calls)
     fftw         :      2.17s CPU      2.54s WALL (     530 calls)
     interpolate  :      0.64s CPU      0.69s WALL (      21 calls)

     Parallel routines

     Environ routines

     PWSCF        :     42.80s CPU     50.65s WALL


   This run was terminated on:   7:27:53   3May2022            

=------------------------------------------------------------------------------=
   JOB DONE.
=------------------------------------------------------------------------------=
