
     Program PWSCF v.6.7MaX starts on  3Feb2022 at 10:54:31 

     This program is part of the open-source Quantum ESPRESSO suite
     for quantum simulation of materials; please cite
         "P. Giannozzi et al., J. Phys.:Condens. Matter 21 395502 (2009);
         "P. Giannozzi et al., J. Phys.:Condens. Matter 29 465901 (2017);
          URL http://www.quantum-espresso.org", 
     in publications or presentations arising from this work. More details at
     http://www.quantum-espresso.org/quote

     Parallel version (MPI), running on     4 processors

     MPI processes distributed on     1 nodes
     R & G space division:  proc/nbgrp/npool/nimage =       4
     Waiting for input...
     Reading input from standard input
Warning: card &CELL ignored
Warning: card / ignored

     Current dimensions of program PWSCF are:
     Max number of different atomic species (ntypx) = 10
     Max number of k-points (npk) =  40000
     Max angular momentum in pseudopotentials (lmaxx) =  3

     Reading input from environ.in:
     * using electronic solvent mode
     * setting boundary derivatives method to SCCS default

     file H.pbe-rrkjus.UPF: wavefunction(s)  1S renormalized
     file O.pbe-rrkjus.UPF: wavefunction(s)  2S renormalized

     Subspace diagonalization in iterative solution of the eigenvalue problem:
     a serial algorithm will be used


     Parallelization info
     --------------------
     sticks:   dense  smooth     PW     G-vecs:    dense   smooth      PW
     Min        2386     952    237               175367    44376    5529
     Max        2388     953    238               175370    44379    5532
     Sum        9549    3809    949               701475   177509   22119



     bravais-lattice index     =            1
     lattice parameter (alat)  =      20.0000  a.u.
     unit-cell volume          =    8000.0000 (a.u.)^3
     number of atoms/cell      =            3
     number of atomic types    =            2
     number of electrons       =         8.00
     number of Kohn-Sham states=            4
     kinetic-energy cutoff     =      30.0000  Ry
     charge density cutoff     =     300.0000  Ry
     scf convergence threshold =      5.0E-09
     mixing beta               =       0.7000
     number of iterations used =            8  plain     mixing
     energy convergence thresh.=      1.0E-04
     force convergence thresh. =      5.0E-03
     Exchange-correlation= SLA  PW   PBE  PBE
                           (   1   4   3   4   0   0   0)
     nstep                     =           50


     ================================================================================

                                  Environ Setup Summary

     ================================================================================

     Please cite
         "O. Andreussi, I. Dabo and N. Marzari, J. Chem. Phys. 136, 064102 (2012)"
     in publications or presentations arising from this work.

     Parameters
     ==========

     compensation onset threshold      =               0.1000E+00

     Electrostatic Setup
     ===================

     electrostatic problem to solve    =                  poisson
     numerical solver adopted          =                   direct
     type of auxiliary density adopted =                     none
     numerical core for poisson        =                      fft
     type of pbc corrections           =                parabolic
     numerical core for corrections    =                      1da

     ================================================================================


     celldm(1)=  20.000000  celldm(2)=   0.000000  celldm(3)=   0.000000
     celldm(4)=   0.000000  celldm(5)=   0.000000  celldm(6)=   0.000000

     crystal axes: (cart. coord. in units of alat)
               a(1) = (   1.000000   0.000000   0.000000 )  
               a(2) = (   0.000000   1.000000   0.000000 )  
               a(3) = (   0.000000   0.000000   1.000000 )  

     reciprocal axes: (cart. coord. in units 2 pi/alat)
               b(1) = (  1.000000  0.000000  0.000000 )  
               b(2) = (  0.000000  1.000000  0.000000 )  
               b(3) = (  0.000000  0.000000  1.000000 )  


     PseudoPot. # 1 for H  read from file:
     /home/mat/q-e/pseudo/H.pbe-rrkjus.UPF
     MD5 check sum: 2d52a7f45632fd764c17cc6affed14c8
     Pseudo is Ultrasoft, Zval =  1.0
     Generated by new atomic code, or converted to UPF format
     Using radial grid of 1061 points,  2 beta functions with: 
                l(1) =   0
                l(2) =   0
     Q(r) pseudized with 0 coefficients 


     PseudoPot. # 2 for O  read from file:
     /home/mat/q-e/pseudo/O.pbe-rrkjus.UPF
     MD5 check sum: fadcf19ee70a498d3030e2e79cf929a4
     Pseudo is Ultrasoft, Zval =  6.0
     Generated by new atomic code, or converted to UPF format
     Using radial grid of 1269 points,  4 beta functions with: 
                l(1) =   0
                l(2) =   0
                l(3) =   1
                l(4) =   1
     Q(r) pseudized with 0 coefficients 


     atomic species   valence    mass     pseudopotential
        H              1.00     1.00800     H ( 1.00)
        O              6.00    15.99900     O ( 1.00)

      2 Sym. Ops. (no inversion) found


                                    s                        frac. trans.

      isym =  1     identity                                     

 cryst.   s( 1) = (     1          0          0      )
                  (     0          1          0      )
                  (     0          0          1      )

 cart.    s( 1) = (  1.0000000  0.0000000  0.0000000 )
                  (  0.0000000  1.0000000  0.0000000 )
                  (  0.0000000  0.0000000  1.0000000 )


      isym =  2     inv. 180 deg rotation - cart. axis [0,0,1]   

 cryst.   s( 2) = (     1          0          0      )
                  (     0          1          0      )
                  (     0          0         -1      )

 cart.    s( 2) = (  1.0000000  0.0000000  0.0000000 )
                  (  0.0000000  1.0000000  0.0000000 )
                  (  0.0000000  0.0000000 -1.0000000 )


     point group C_s (m)    
     there are  2 classes
     the character table:

       E     s    
A'     1.00  1.00
A''    1.00 -1.00

     the symmetry operations in each class and the name of the first element:

     E        1
          identity                                               
     s        2
          inv. 180 deg rotation - cart. axis [0,0,1]             

   Cartesian axes

     site n.     atom                  positions (alat units)
         1           O   tau(   1) = (   0.5140000   0.5255000   0.5000000  )
         2           H   tau(   2) = (   0.5935000   0.4785000   0.5000000  )
         3           H   tau(   3) = (   0.4495000   0.4600000   0.5000000  )

   Crystallographic axes

     site n.     atom                  positions (cryst. coord.)
         1           O   tau(   1) = (  0.5140000  0.5255000  0.5000000  )
         2           H   tau(   2) = (  0.5935000  0.4785000  0.5000000  )
         3           H   tau(   3) = (  0.4495000  0.4600000  0.5000000  )

     number of k points=     1
                       cart. coord. in units 2pi/alat
        k(    1) = (   0.0000000   0.0000000   0.0000000), wk =   2.0000000

                       cryst. coord.
        k(    1) = (   0.0000000   0.0000000   0.0000000), wk =   2.0000000

     Dense  grid:   701475 G-vectors     FFT dimensions: ( 120, 120, 120)

     Smooth grid:   177509 G-vectors     FFT dimensions: (  72,  72,  72)

     Dynamical RAM for                 wfc:       0.34 MB

     Dynamical RAM for     wfc (w. buffer):       0.34 MB

     Dynamical RAM for           str. fact:       5.35 MB

     Dynamical RAM for           local pot:       0.00 MB

     Dynamical RAM for          nlocal pot:       1.02 MB

     Dynamical RAM for                qrad:       0.79 MB

     Dynamical RAM for          rho,v,vnew:      17.92 MB

     Dynamical RAM for               rhoin:       5.97 MB

     Dynamical RAM for            rho*nmix:      42.81 MB

     Dynamical RAM for           G-vectors:      10.37 MB

     Dynamical RAM for          h,s,v(r/c):       0.00 MB

     Dynamical RAM for          <psi|beta>:       0.00 MB

     Dynamical RAM for                 psi:       0.68 MB

     Dynamical RAM for                hpsi:       0.68 MB

     Dynamical RAM for                spsi:       0.68 MB

     Dynamical RAM for      wfcinit/wfcrot:       1.02 MB

     Dynamical RAM for           addusdens:     120.42 MB

     Dynamical RAM for          addusforce:     127.11 MB

     Estimated static dynamical RAM per process >     109.08 MB

     Estimated max dynamical RAM per process >     236.19 MB

     Estimated total dynamical RAM >     944.76 MB

     Initial potential from superposition of free atoms

     starting charge    7.80759, renormalised to    8.00000

     negative rho (up, down):  7.946E-04 0.000E+00
     Starting wfcs are    6 randomized atomic wfcs

     total cpu time spent up to now is        1.6 secs

     Self-consistent Calculation

     iteration #  1     ecut=    30.00 Ry     beta= 0.70
     Davidson diagonalization with overlap
     ethr =  1.00E-02,  avg # of iterations =  2.0

     negative rho (up, down):  2.566E-04 0.000E+00

     total cpu time spent up to now is        2.5 secs

     total energy              =     -34.06678666 Ry
     estimated scf accuracy    <       0.68533603 Ry
     electrostatic embedding   =       0.00000000 Ry
     correction to one-el term =      -0.00000000 Ry

     iteration #  2     ecut=    30.00 Ry     beta= 0.70
     Davidson diagonalization with overlap
     ethr =  8.57E-03,  avg # of iterations =  2.0

     negative rho (up, down):  2.633E-03 0.000E+00

     total cpu time spent up to now is        3.4 secs

     total energy              =     -34.20409257 Ry
     estimated scf accuracy    <       0.36347301 Ry
     electrostatic embedding   =       0.00000000 Ry
     correction to one-el term =      -0.00000000 Ry

     iteration #  3     ecut=    30.00 Ry     beta= 0.70
     Davidson diagonalization with overlap
     ethr =  4.54E-03,  avg # of iterations =  2.0

     negative rho (up, down):  4.323E-04 0.000E+00

     add environment contribution to local potential

     total cpu time spent up to now is        4.4 secs

     total energy              =     -34.26681014 Ry
     estimated scf accuracy    <       0.00829265 Ry
     electrostatic embedding   =       0.00000000 Ry
     correction to one-el term =      -0.00000000 Ry

     iteration #  4     ecut=    30.00 Ry     beta= 0.70
     Davidson diagonalization with overlap
     ethr =  1.04E-04,  avg # of iterations =  2.0

     negative rho (up, down):  1.178E-04 0.000E+00

     add environment contribution to local potential

     total cpu time spent up to now is        5.4 secs

     total energy              =     -34.26801600 Ry
     estimated scf accuracy    <       0.00084445 Ry
     electrostatic embedding   =       0.00025689 Ry
     correction to one-el term =       0.04695734 Ry

     iteration #  5     ecut=    30.00 Ry     beta= 0.70
     Davidson diagonalization with overlap
     ethr =  1.06E-05,  avg # of iterations =  2.0

     negative rho (up, down):  1.897E-04 0.000E+00

     add environment contribution to local potential

     total cpu time spent up to now is        6.5 secs

     total energy              =     -34.26821335 Ry
     estimated scf accuracy    <       0.00001898 Ry
     electrostatic embedding   =       0.00027321 Ry
     correction to one-el term =       0.04711287 Ry

     iteration #  6     ecut=    30.00 Ry     beta= 0.70
     Davidson diagonalization with overlap
     ethr =  2.37E-07,  avg # of iterations =  2.0

     negative rho (up, down):  2.083E-04 0.000E+00

     add environment contribution to local potential

     total cpu time spent up to now is        7.5 secs

     total energy              =     -34.26821516 Ry
     estimated scf accuracy    <       0.00000035 Ry
     electrostatic embedding   =       0.00028067 Ry
     correction to one-el term =       0.04620124 Ry

     iteration #  7     ecut=    30.00 Ry     beta= 0.70
     Davidson diagonalization with overlap
     ethr =  4.41E-09,  avg # of iterations =  2.0

     negative rho (up, down):  2.146E-04 0.000E+00

     add environment contribution to local potential

     total cpu time spent up to now is        8.5 secs

     total energy              =     -34.26821521 Ry
     estimated scf accuracy    <       0.00000004 Ry
     electrostatic embedding   =       0.00027992 Ry
     correction to one-el term =       0.04616123 Ry

     iteration #  8     ecut=    30.00 Ry     beta= 0.70
     Davidson diagonalization with overlap
     ethr =  5.58E-10,  avg # of iterations =  2.0

     negative rho (up, down):  2.152E-04 0.000E+00

     add environment contribution to local potential

     total cpu time spent up to now is        9.5 secs

     total energy              =     -34.26821520 Ry
     estimated scf accuracy    <       0.00000002 Ry
     electrostatic embedding   =       0.00027943 Ry
     correction to one-el term =       0.04616192 Ry

     iteration #  9     ecut=    30.00 Ry     beta= 0.70
     Davidson diagonalization with overlap
     ethr =  2.84E-10,  avg # of iterations =  2.0

     negative rho (up, down):  2.149E-04 0.000E+00

     the potential shift due to the Gaussian-smeared nuclei is    -0.0214 ev

     total cpu time spent up to now is       10.3 secs

     End of self-consistent calculation

          k = 0.0000 0.0000 0.0000 ( 22119 PWs)   bands (ev):

   -25.2616 -13.0581  -9.2455  -7.2003

     occupation numbers 
     1.0000   1.0000   1.0000   1.0000

     highest occupied level (ev):    -7.2003

!    total energy              =     -34.26821520 Ry
     estimated scf accuracy    <          4.4E-10 Ry

     The total energy is the sum of the following terms:
     one-electron contribution =     -63.98935118 Ry
     hartree contribution      =      33.41413883 Ry
     xc contribution           =      -8.39841557 Ry
     ewald contribution        =       4.65897432 Ry
     electrostatic embedding   =       0.00027964 Ry
     correction to one-el term =       0.04615876 Ry

     WARNING: you are using the parabolic pbc correction;
              the potential shift above must be added to 
              band and Fermi energies.

     convergence has been achieved in   9 iterations
     The global environment contribution to forces
     atom    1 type  2   force =    -0.00060104    0.00455228    0.00000001
     atom    2 type  1   force =    -0.00010017    0.00075871    0.00000000
     atom    3 type  1   force =    -0.00010017    0.00075871    0.00000000


     Forces acting on atoms (cartesian axes, Ry/au):

     atom    1 type  2   force =     0.00759848   -0.00267040    0.00000000
     atom    2 type  1   force =    -0.00311593    0.00426113    0.00000000
     atom    3 type  1   force =    -0.00448255   -0.00159073    0.00000000
     The non-local contrib.  to forces
     atom    1 type  2   force =     0.32277090   -2.49383031    0.00000000
     atom    2 type  1   force =    -0.17234197    0.09316757    0.00000000
     atom    3 type  1   force =     0.14469678    0.13621825    0.00000000
     The ionic contribution  to forces
     atom    1 type  2   force =    -0.53482929    4.30556355    0.00000000
     atom    2 type  1   force =     3.24976518   -1.75434632   -0.00000000
     atom    3 type  1   force =    -2.71493589   -2.55121723    0.00000000
     The local contribution  to forces
     atom    1 type  2   force =     0.22027400   -1.81900096    0.00000000
     atom    2 type  1   force =    -3.08042725    1.66466889    0.00000000
     atom    3 type  1   force =     2.56586667    2.41263695    0.00000000
     The core correction contribution to forces
     atom    1 type  2   force =     0.00000000    0.00000000    0.00000000
     atom    2 type  1   force =     0.00000000    0.00000000    0.00000000
     atom    3 type  1   force =     0.00000000    0.00000000    0.00000000
     The Hubbard contrib.    to forces
     atom    1 type  2   force =     0.00000000    0.00000000    0.00000000
     atom    2 type  1   force =     0.00000000    0.00000000    0.00000000
     atom    3 type  1   force =     0.00000000    0.00000000    0.00000000
     The SCF correction term to forces
     atom    1 type  2   force =    -0.00000551    0.00003444   -0.00000000
     atom    2 type  1   force =    -0.00000115    0.00000166    0.00000000
     atom    3 type  1   force =     0.00000064    0.00000197   -0.00000000

     Total force =     0.010740     Total SCF correction =     0.000035

     BFGS Geometry Optimization
     Energy error            =      0.0E+00
     Gradient error          =      7.6E-03

     number of scf cycles    =   1
     number of bfgs steps    =   0

     energy   new            =     -34.2682151959 Ry

     new trust radius        =       0.0080540624 bohr
     new conv_thr            =       0.0000000050 Ry


ATOMIC_POSITIONS (bohr)
O            10.2875984807       10.5073296045       10.0000000000
H            11.8668840666        9.5742611273       10.0000000000
H             8.9855174526        9.1984092682       10.0000000000



     Writing output data file /home/mat/q-e/tempdir/h2o.save/
     NEW-OLD atomic charge density approx. for the potential

     negative rho (up, down):  3.268E-04 0.000E+00

     add environment contribution to local potential

     total cpu time spent up to now is       12.1 secs

     Self-consistent Calculation

     iteration #  1     ecut=    30.00 Ry     beta= 0.70
     Davidson diagonalization with overlap
     ethr =  1.00E-06,  avg # of iterations =  3.0

     negative rho (up, down):  2.298E-04 0.000E+00

     add environment contribution to local potential

     total cpu time spent up to now is       13.1 secs

     total energy              =     -34.26820320 Ry
     estimated scf accuracy    <       0.00002794 Ry
     electrostatic embedding   =       0.00027927 Ry
     correction to one-el term =       0.04617349 Ry

     iteration #  2     ecut=    30.00 Ry     beta= 0.70
     Davidson diagonalization with overlap
     ethr =  3.49E-07,  avg # of iterations =  2.0

     negative rho (up, down):  2.192E-04 0.000E+00

     add environment contribution to local potential

     total cpu time spent up to now is       14.1 secs

     total energy              =     -34.26820797 Ry
     estimated scf accuracy    <       0.00000697 Ry
     electrostatic embedding   =       0.00027920 Ry
     correction to one-el term =       0.04610658 Ry

     iteration #  3     ecut=    30.00 Ry     beta= 0.70
     Davidson diagonalization with overlap
     ethr =  8.71E-08,  avg # of iterations =  2.0

     negative rho (up, down):  2.154E-04 0.000E+00

     add environment contribution to local potential

     total cpu time spent up to now is       15.1 secs

     total energy              =     -34.26820970 Ry
     estimated scf accuracy    <       0.00000075 Ry
     electrostatic embedding   =       0.00027812 Ry
     correction to one-el term =       0.04615470 Ry

     iteration #  4     ecut=    30.00 Ry     beta= 0.70
     Davidson diagonalization with overlap
     ethr =  9.37E-09,  avg # of iterations =  2.0

     negative rho (up, down):  2.150E-04 0.000E+00

     add environment contribution to local potential

     total cpu time spent up to now is       16.1 secs

     total energy              =     -34.26820980 Ry
     estimated scf accuracy    <       0.00000001 Ry
     electrostatic embedding   =       0.00027823 Ry
     correction to one-el term =       0.04614290 Ry

     iteration #  5     ecut=    30.00 Ry     beta= 0.70
     Davidson diagonalization with overlap
     ethr =  1.57E-10,  avg # of iterations =  2.0

     negative rho (up, down):  2.150E-04 0.000E+00

     the potential shift due to the Gaussian-smeared nuclei is    -0.0214 ev

     total cpu time spent up to now is       16.9 secs

     End of self-consistent calculation

          k = 0.0000 0.0000 0.0000 ( 22119 PWs)   bands (ev):

   -25.2703 -13.0849  -9.2320  -7.2016

     occupation numbers 
     1.0000   1.0000   1.0000   1.0000

     highest occupied level (ev):    -7.2016

!    total energy              =     -34.26820981 Ry
     estimated scf accuracy    <          1.8E-09 Ry

     The total energy is the sum of the following terms:
     one-electron contribution =     -64.01853910 Ry
     hartree contribution      =      33.42846667 Ry
     xc contribution           =      -8.40080980 Ry
     ewald contribution        =       4.67625134 Ry
     electrostatic embedding   =       0.00027823 Ry
     correction to one-el term =       0.04614286 Ry

     WARNING: you are using the parabolic pbc correction;
              the potential shift above must be added to 
              band and Fermi energies.

     convergence has been achieved in   5 iterations
     The global environment contribution to forces
     atom    1 type  2   force =    -0.00057082    0.00454446    0.00000001
     atom    2 type  1   force =    -0.00009514    0.00075741    0.00000000
     atom    3 type  1   force =    -0.00009514    0.00075741    0.00000000


     Forces acting on atoms (cartesian axes, Ry/au):

     atom    1 type  2   force =    -0.01005136   -0.00100453    0.00000000
     atom    2 type  1   force =     0.00792321   -0.00307321    0.00000000
     atom    3 type  1   force =     0.00212815    0.00407774    0.00000000
     The non-local contrib.  to forces
     atom    1 type  2   force =     0.32160614   -2.49030391    0.00000000
     atom    2 type  1   force =    -0.17608573    0.09514157    0.00000000
     atom    3 type  1   force =     0.14367310    0.13362134    0.00000000
     The ionic contribution  to forces
     atom    1 type  2   force =    -0.58584806    4.29602292   -0.00000000
     atom    2 type  1   force =     3.29218021   -1.77809247   -0.00000000
     atom    3 type  1   force =    -2.70633215   -2.51793046    0.00000000
     The local contribution  to forces
     atom    1 type  2   force =     0.25481013   -1.81131109    0.00000000
     atom    2 type  1   force =    -3.10805332    1.67910597    0.00000000
     atom    3 type  1   force =     2.56489585    2.38761378    0.00000000
     The core correction contribution to forces
     atom    1 type  2   force =     0.00000000    0.00000000    0.00000000
     atom    2 type  1   force =     0.00000000    0.00000000    0.00000000
     atom    3 type  1   force =     0.00000000    0.00000000    0.00000000
     The Hubbard contrib.    to forces
     atom    1 type  2   force =     0.00000000    0.00000000    0.00000000
     atom    2 type  1   force =     0.00000000    0.00000000    0.00000000
     atom    3 type  1   force =     0.00000000    0.00000000    0.00000000
     The SCF correction term to forces
     atom    1 type  2   force =    -0.00003169    0.00003287   -0.00000000
     atom    2 type  1   force =    -0.00000575    0.00000409   -0.00000000
     atom    3 type  1   force =     0.00000356    0.00000545   -0.00000000

     Total force =     0.013979     Total SCF correction =     0.000047
     Energy error            =      5.4E-06
     Gradient error          =      1.0E-02

     number of scf cycles    =   2
     number of bfgs steps    =   1

     energy   old            =     -34.2682151959 Ry
     energy   new            =     -34.2682098050 Ry

     CASE: energy  _new > energy  _old

     new trust radius        =       0.0038472419 bohr
     new conv_thr            =       0.0000000050 Ry


ATOMIC_POSITIONS (bohr)
O            10.2836296209       10.5087244130       10.0000000000
H            11.8685115897        9.5720354433       10.0000000000
H             8.9878587894        9.1992401437       10.0000000000



     Writing output data file /home/mat/q-e/tempdir/h2o.save/
     NEW-OLD atomic charge density approx. for the potential

     negative rho (up, down):  2.578E-04 0.000E+00

     add environment contribution to local potential

     total cpu time spent up to now is       18.7 secs

     Self-consistent Calculation

     iteration #  1     ecut=    30.00 Ry     beta= 0.70
     Davidson diagonalization with overlap
     ethr =  1.00E-06,  avg # of iterations =  3.0

     Threshold (ethr) on eigenvalues was too large:
     Diagonalizing with lowered threshold

     Davidson diagonalization with overlap
     ethr =  9.02E-08,  avg # of iterations =  1.0

     negative rho (up, down):  2.199E-04 0.000E+00

     add environment contribution to local potential

     total cpu time spent up to now is       20.0 secs

     total energy              =     -34.26824112 Ry
     estimated scf accuracy    <       0.00000763 Ry
     electrostatic embedding   =       0.00027836 Ry
     correction to one-el term =       0.04613674 Ry

     iteration #  2     ecut=    30.00 Ry     beta= 0.70
     Davidson diagonalization with overlap
     ethr =  9.54E-08,  avg # of iterations =  2.0

     negative rho (up, down):  2.165E-04 0.000E+00

     add environment contribution to local potential

     total cpu time spent up to now is       21.0 secs

     total energy              =     -34.26824248 Ry
     estimated scf accuracy    <       0.00000161 Ry
     electrostatic embedding   =       0.00027847 Ry
     correction to one-el term =       0.04616938 Ry

     iteration #  3     ecut=    30.00 Ry     beta= 0.70
     Davidson diagonalization with overlap
     ethr =  2.01E-08,  avg # of iterations =  2.0

     negative rho (up, down):  2.152E-04 0.000E+00

     add environment contribution to local potential

     total cpu time spent up to now is       21.9 secs

     total energy              =     -34.26824286 Ry
     estimated scf accuracy    <       0.00000022 Ry
     electrostatic embedding   =       0.00027899 Ry
     correction to one-el term =       0.04614553 Ry

     iteration #  4     ecut=    30.00 Ry     beta= 0.70
     Davidson diagonalization with overlap
     ethr =  2.74E-09,  avg # of iterations =  2.0

     negative rho (up, down):  2.149E-04 0.000E+00

     the potential shift due to the Gaussian-smeared nuclei is    -0.0214 ev

     total cpu time spent up to now is       22.7 secs

     End of self-consistent calculation

          k = 0.0000 0.0000 0.0000 ( 22119 PWs)   bands (ev):

   -25.2658 -13.0711  -9.2393  -7.2012

     occupation numbers 
     1.0000   1.0000   1.0000   1.0000

     highest occupied level (ev):    -7.2012

!    total energy              =     -34.26824291 Ry
     estimated scf accuracy    <          3.6E-09 Ry

     The total energy is the sum of the following terms:
     one-electron contribution =     -64.00328671 Ry
     hartree contribution      =      33.42103953 Ry
     xc contribution           =      -8.39956812 Ry
     ewald contribution        =       4.66714146 Ry
     electrostatic embedding   =       0.00027891 Ry
     correction to one-el term =       0.04615201 Ry

     WARNING: you are using the parabolic pbc correction;
              the potential shift above must be added to 
              band and Fermi energies.

     convergence has been achieved in   4 iterations
     The global environment contribution to forces
     atom    1 type  2   force =    -0.00058637    0.00454811    0.00000001
     atom    2 type  1   force =    -0.00009773    0.00075802    0.00000000
     atom    3 type  1   force =    -0.00009773    0.00075802    0.00000000


     Forces acting on atoms (cartesian axes, Ry/au):

     atom    1 type  2   force =    -0.00074073   -0.00195044    0.00000000
     atom    2 type  1   force =     0.00206615    0.00080380    0.00000000
     atom    3 type  1   force =    -0.00132542    0.00114664    0.00000000
     The non-local contrib.  to forces
     atom    1 type  2   force =     0.32223314   -2.49218100    0.00000000
     atom    2 type  1   force =    -0.17412202    0.09410714    0.00000000
     atom    3 type  1   force =     0.14421080    0.13497395    0.00000000
     The ionic contribution  to forces
     atom    1 type  2   force =    -0.55905655    4.30089744    0.00000000
     atom    2 type  1   force =     3.26991406   -1.76562880   -0.00000000
     atom    3 type  1   force =    -2.71085751   -2.53526863   -0.00000000
     The local contribution  to forces
     atom    1 type  2   force =     0.23663329   -1.81524039    0.00000000
     atom    2 type  1   force =    -3.09359889    1.67155787    0.00000000
     atom    3 type  1   force =     2.56545109    2.40067359    0.00000000
     The core correction contribution to forces
     atom    1 type  2   force =     0.00000000    0.00000000    0.00000000
     atom    2 type  1   force =     0.00000000    0.00000000    0.00000000
     atom    3 type  1   force =     0.00000000    0.00000000    0.00000000
     The Hubbard contrib.    to forces
     atom    1 type  2   force =     0.00000000    0.00000000    0.00000000
     atom    2 type  1   force =     0.00000000    0.00000000    0.00000000
     atom    3 type  1   force =     0.00000000    0.00000000    0.00000000
     The SCF correction term to forces
     atom    1 type  2   force =     0.00006307    0.00001588    0.00000000
     atom    2 type  1   force =    -0.00000196    0.00000005   -0.00000000
     atom    3 type  1   force =    -0.00000476    0.00000020    0.00000000

     Total force =     0.003513     Total SCF correction =     0.000065
     Energy error            =      2.8E-05
     Gradient error          =      2.1E-03

     bfgs converged in   3 scf cycles and   1 bfgs steps
     (criteria: energy <  1.0E-04 Ry, force <  5.0E-03 Ry/Bohr)

     End of BFGS Geometry Optimization

     Final energy   =     -34.2682429073 Ry

     File /home/mat/q-e/tempdir/h2o.bfgs deleted, as requested
Begin final coordinates

ATOMIC_POSITIONS (bohr)
O            10.2836296209       10.5087244130       10.0000000000
H            11.8685115897        9.5720354433       10.0000000000
H             8.9878587894        9.1992401437       10.0000000000
End final coordinates



     Writing output data file /home/mat/q-e/tempdir/h2o.save/

     init_run     :      1.33s CPU      1.51s WALL (       1 calls)
     electrons    :     15.12s CPU     17.65s WALL (       3 calls)
     update_pot   :      0.93s CPU      1.01s WALL (       2 calls)
     forces       :      1.41s CPU      1.60s WALL (       3 calls)

     Called by init_run:
     wfcinit      :      0.03s CPU      0.03s WALL (       1 calls)
     wfcinit:atom :      0.00s CPU      0.00s WALL (       1 calls)
     wfcinit:wfcr :      0.02s CPU      0.02s WALL (       1 calls)
     potinit      :      0.47s CPU      0.52s WALL (       1 calls)
     hinit0       :      0.47s CPU      0.48s WALL (       1 calls)

     Called by electrons:
     c_bands      :      0.97s CPU      0.99s WALL (      19 calls)
     sum_band     :      3.41s CPU      4.29s WALL (      19 calls)
     v_of_rho     :      5.76s CPU      6.52s WALL (      21 calls)
     v_h          :      0.51s CPU      0.60s WALL (      21 calls)
     v_xc         :      5.25s CPU      5.92s WALL (      21 calls)
     newd         :      2.54s CPU      3.48s WALL (      21 calls)
     mix_rho      :      0.80s CPU      0.84s WALL (      19 calls)

     Called by c_bands:
     init_us_2    :      0.05s CPU      0.05s WALL (      39 calls)
     cegterg      :      0.93s CPU      0.95s WALL (      19 calls)

     Called by sum_band:
     sum_band:wei :      0.00s CPU      0.00s WALL (      19 calls)
     sum_band:loo :      0.18s CPU      0.19s WALL (      19 calls)
     sum_band:buf :      0.00s CPU      0.00s WALL (      19 calls)
     sum_band:ini :      0.02s CPU      0.02s WALL (      19 calls)
     sum_band:cal :      0.01s CPU      0.01s WALL (      19 calls)
     sum_band:bec :      0.00s CPU      0.00s WALL (      19 calls)
     addusdens    :      2.47s CPU      3.30s WALL (      19 calls)
     addusd:skk   :      0.04s CPU      0.04s WALL (      38 calls)
     addusd:dgemm :      0.74s CPU      1.35s WALL (      38 calls)
     addusd:qvan2 :      1.12s CPU      1.14s WALL (      38 calls)

     Called by *egterg:
     cdiaghg      :      0.00s CPU      0.00s WALL (      55 calls)
     cegterg:over :      0.02s CPU      0.03s WALL (      39 calls)
     cegterg:upda :      0.01s CPU      0.01s WALL (      39 calls)
     cegterg:last :      0.03s CPU      0.03s WALL (      39 calls)
     h_psi        :      0.84s CPU      0.86s WALL (      59 calls)
     s_psi        :      0.02s CPU      0.03s WALL (      59 calls)
     g_psi        :      0.00s CPU      0.00s WALL (      39 calls)

     Called by h_psi:
     h_psi:calbec :      0.03s CPU      0.03s WALL (      59 calls)
     vloc_psi     :      0.78s CPU      0.80s WALL (      59 calls)
     add_vuspsi   :      0.03s CPU      0.03s WALL (      59 calls)

     General routines
     calbec       :      0.05s CPU      0.05s WALL (      90 calls)
     fft          :      6.00s CPU      6.43s WALL (     276 calls)
     ffts         :      0.13s CPU      0.13s WALL (      40 calls)
     fftw         :      0.84s CPU      0.86s WALL (     530 calls)
     interpolate  :      0.54s CPU      0.55s WALL (      21 calls)

     Parallel routines
     fft_scatt_xy :      0.64s CPU      0.66s WALL (     846 calls)
     fft_scatt_yz :      1.78s CPU      2.02s WALL (     846 calls)

     Environ routines

     PWSCF        :     20.22s CPU     23.35s WALL


   This run was terminated on:  10:54:54   3Feb2022            

=------------------------------------------------------------------------------=
   JOB DONE.
=------------------------------------------------------------------------------=
