
     Program PWSCF v.7.0 starts on  3May2022 at  7:31:37 

     This program is part of the open-source Quantum ESPRESSO suite
     for quantum simulation of materials; please cite
         "P. Giannozzi et al., J. Phys.:Condens. Matter 21 395502 (2009);
         "P. Giannozzi et al., J. Phys.:Condens. Matter 29 465901 (2017);
         "P. Giannozzi et al., J. Chem. Phys. 152 154105 (2020);
          URL http://www.quantum-espresso.org", 
     in publications or presentations arising from this work. More details at
     http://www.quantum-espresso.org/quote

     Parallel version (MPI), running on     1 processors

     MPI processes distributed on     1 nodes
     19233 MiB available memory on the printing compute node when the environment starts

     Waiting for input...
     Reading input from standard input
Warning: card &CELL ignored
Warning: card / ignored

     Current dimensions of program PWSCF are:
     Max number of different atomic species (ntypx) = 10
     Max number of k-points (npk) =  40000
     Max angular momentum in pseudopotentials (lmaxx) =  4

     Reading input from environ.in:
     * using ionic solvent mode
     * setting boundary derivatives method to SSCS default
     
     file H.pbe-rrkjus.UPF: wavefunction(s)  1S renormalized
     file O.pbe-rrkjus.UPF: wavefunction(s)  2S renormalized

     Subspace diagonalization in iterative solution of the eigenvalue problem:
     a serial algorithm will be used


     G-vector sticks info
     --------------------
     sticks:   dense  smooth     PW     G-vecs:    dense   smooth      PW
     Sum        9549    3809    949               701475   177509   22119

     Using Slab Decomposition



     bravais-lattice index     =            1
     lattice parameter (alat)  =      20.0000  a.u.
     unit-cell volume          =    8000.0000 (a.u.)^3
     number of atoms/cell      =            4
     number of atomic types    =            2
     number of electrons       =         8.00
     number of Kohn-Sham states=            4
     kinetic-energy cutoff     =      30.0000  Ry
     charge density cutoff     =     300.0000  Ry
     scf convergence threshold =      5.0E-09
     mixing beta               =       0.7000
     number of iterations used =            8  plain     mixing
     energy convergence thresh.=      1.0E-04
     force convergence thresh. =      5.0E-02
     Exchange-correlation= SLA  PW   PBE  PBE
                           (   1   4   3   4   0   0   0)
     nstep                     =           50


     ================================================================================

                                  Environ Setup Summary

     ================================================================================

     Please cite

          O. Andreussi, I. Dabo and N. Marzari, J. Chem. Phys. 136, 064102 (2012)
          M. Truscott, O. Andreussi, J. Phys. Chem. B, 123, 16, 3513–3524 (2019)

     in publications or presentations arising from this work.

     ================================================================================

     Parameters
     ==========

     compensation onset threshold      =               0.1000E+00
     static permittivity               =                    78.30
     surface tension in input (dyn/cm) =                    50.00
     surface tension in internal units =               0.6423E-04
     external pressure in input (GPa)  =                    -0.35
     external pressure in inter. units =              -0.2379E-04

     Solvent Boundary
     ================

     solvent mode                      =                    ionic
     derivatives method                =                   lowmem
     numerical core for derivatives    =                      fft
     switching function adopted        =                     SCCS
     density limit for vacuum region   =               0.5000E-02
     density limit for bulk solvent    =               0.1000E-03
     soft-sphere radius mode           =                     muff
     soft-sphere softness              =                     0.50
     alpha                             =                     1.12
     interface is field aware
     field aware factor                =                     0.08
     asymmetry of field-awareness      =                    -0.32
     field limit for no correction     =                     2.00
     field limit for full correction   =                     6.00

     Electrostatic Setup
     ===================

     electrostatic problem to solve    =              generalized
     numerical solver adopted          =                       cg
     type of auxiliary density adopted =                     none
     numerical core for poisson        =                      fft
     type of pbc corrections           =                parabolic
     numerical core for corrections    =                      1da

     ================================================================================


     celldm(1)=  20.000000  celldm(2)=   0.000000  celldm(3)=   0.000000
     celldm(4)=   0.000000  celldm(5)=   0.000000  celldm(6)=   0.000000

     crystal axes: (cart. coord. in units of alat)
               a(1) = (   1.000000   0.000000   0.000000 )  
               a(2) = (   0.000000   1.000000   0.000000 )  
               a(3) = (   0.000000   0.000000   1.000000 )  

     reciprocal axes: (cart. coord. in units 2 pi/alat)
               b(1) = (  1.000000  0.000000  0.000000 )  
               b(2) = (  0.000000  1.000000  0.000000 )  
               b(3) = (  0.000000  0.000000  1.000000 )  


     PseudoPot. # 1 for H  read from file:
     MD5 check sum: 2d52a7f45632fd764c17cc6affed14c8
     Pseudo is Ultrasoft, Zval =  1.0
     Generated by new atomic code, or converted to UPF format
     Using radial grid of 1061 points,  2 beta functions with: 
                l(1) =   0
                l(2) =   0
     Q(r) pseudized with 0 coefficients 


     PseudoPot. # 2 for O  read from file:
     MD5 check sum: fadcf19ee70a498d3030e2e79cf929a4
     Pseudo is Ultrasoft, Zval =  6.0
     Generated by new atomic code, or converted to UPF format
     Using radial grid of 1269 points,  4 beta functions with: 
                l(1) =   0
                l(2) =   0
                l(3) =   1
                l(4) =   1
     Q(r) pseudized with 0 coefficients 


     atomic species   valence    mass     pseudopotential
        H              1.00     1.00800     H ( 1.00)
        O              6.00    15.99900     O ( 1.00)

      2 Sym. Ops. (no inversion) found


                                    s                        frac. trans.

      isym =  1     identity                                     

 cryst.   s( 1) = (     1          0          0      )
                  (     0          1          0      )
                  (     0          0          1      )

 cart.    s( 1) = (  1.0000000  0.0000000  0.0000000 )
                  (  0.0000000  1.0000000  0.0000000 )
                  (  0.0000000  0.0000000  1.0000000 )


      isym =  2     inv. 180 deg rotation - cart. axis [0,0,1]   

 cryst.   s( 2) = (     1          0          0      )
                  (     0          1          0      )
                  (     0          0         -1      )

 cart.    s( 2) = (  1.0000000  0.0000000  0.0000000 )
                  (  0.0000000  1.0000000  0.0000000 )
                  (  0.0000000  0.0000000 -1.0000000 )


     point group C_s (m)    
     there are  2 classes
     the character table:

       E     s    
A'     1.00  1.00
A''    1.00 -1.00

     the symmetry operations in each class and the name of the first element:

     E        1
          identity                                               
     s        2
          inv. 180 deg rotation - cart. axis [0,0,1]             

   Cartesian axes

     site n.     atom                  positions (alat units)
         1           H   tau(   1) = (   0.6115000   0.5750000   0.5000000  )
         2           H   tau(   2) = (   0.5280000   0.4375000   0.5000000  )
         3           H   tau(   3) = (   0.4510000   0.5785000   0.5000000  )
         4           O   tau(   4) = (   0.5305000   0.5305000   0.5000000  )

   Crystallographic axes

     site n.     atom                  positions (cryst. coord.)
         1           H   tau(   1) = (  0.6115000  0.5750000  0.5000000  )
         2           H   tau(   2) = (  0.5280000  0.4375000  0.5000000  )
         3           H   tau(   3) = (  0.4510000  0.5785000  0.5000000  )
         4           O   tau(   4) = (  0.5305000  0.5305000  0.5000000  )

     number of k points=     1
                       cart. coord. in units 2pi/alat
        k(    1) = (   0.0000000   0.0000000   0.0000000), wk =   2.0000000

                       cryst. coord.
        k(    1) = (   0.0000000   0.0000000   0.0000000), wk =   2.0000000

     Dense  grid:   701475 G-vectors     FFT dimensions: ( 120, 120, 120)

     Smooth grid:   177509 G-vectors     FFT dimensions: (  72,  72,  72)

     Dynamical RAM for                 wfc:       1.35 MB

     Dynamical RAM for     wfc (w. buffer):       1.35 MB

     Dynamical RAM for           str. fact:      21.41 MB

     Dynamical RAM for           local pot:       0.00 MB

     Dynamical RAM for          nlocal pot:       4.74 MB

     Dynamical RAM for                qrad:       0.79 MB

     Dynamical RAM for          rho,v,vnew:      71.66 MB

     Dynamical RAM for               rhoin:      23.89 MB

     Dynamical RAM for            rho*nmix:     171.26 MB

     Dynamical RAM for           G-vectors:      41.49 MB

     Dynamical RAM for          h,s,v(r/c):       0.00 MB

     Dynamical RAM for          <psi|beta>:       0.00 MB

     Dynamical RAM for                 psi:       2.71 MB

     Dynamical RAM for                hpsi:       2.71 MB

     Dynamical RAM for                spsi:       2.71 MB

     Dynamical RAM for      wfcinit/wfcrot:       4.74 MB

     Dynamical RAM for           addusdens:     492.37 MB

     Dynamical RAM for          addusforce:     540.54 MB

     Estimated static dynamical RAM per process >     263.37 MB

     Estimated max dynamical RAM per process >     975.17 MB

     Initial potential from superposition of free atoms

     starting charge       8.7114, renormalised to       8.0000

     negative rho (up, down):  6.657E-04 0.000E+00
     Starting wfcs are    7 randomized atomic wfcs

     total cpu time spent up to now is        7.1 secs

     Self-consistent Calculation

     iteration #  1     ecut=    30.00 Ry     beta= 0.70
     Davidson diagonalization with overlap

---- Real-time Memory Report at c_bands before calling an iterative solver
          1848 MiB given to the printing process from OS
             0 MiB allocation reported by mallinfo(arena+hblkhd)
         18336 MiB available memory on the node where the printing process lives
------------------
     ethr =  1.00E-02,  avg # of iterations =  2.0

     negative rho (up, down):  1.982E-04 0.000E+00

     total cpu time spent up to now is       11.6 secs

     total energy              =     -34.08220433 Ry
     estimated scf accuracy    <       2.63783559 Ry
     electrostatic embedding   =       0.00176715 Ry
     cavitation energy         =       0.01377503 Ry
     PV energy                 =      -0.00682266 Ry
     correction to one-el term =      -0.00000000 Ry

     iteration #  2     ecut=    30.00 Ry     beta= 0.70
     Davidson diagonalization with overlap

---- Real-time Memory Report at c_bands before calling an iterative solver
          1957 MiB given to the printing process from OS
             0 MiB allocation reported by mallinfo(arena+hblkhd)
         18265 MiB available memory on the node where the printing process lives
------------------
     ethr =  1.00E-02,  avg # of iterations =  3.0

     negative rho (up, down):  4.182E-03 0.000E+00

     total cpu time spent up to now is       16.1 secs

     total energy              =     -34.77504424 Ry
     estimated scf accuracy    <       1.02498166 Ry
     electrostatic embedding   =       0.00176715 Ry
     cavitation energy         =       0.01377503 Ry
     PV energy                 =      -0.00682266 Ry
     correction to one-el term =      -0.00000000 Ry

     iteration #  3     ecut=    30.00 Ry     beta= 0.70
     Davidson diagonalization with overlap

---- Real-time Memory Report at c_bands before calling an iterative solver
          1963 MiB given to the printing process from OS
             0 MiB allocation reported by mallinfo(arena+hblkhd)
         18257 MiB available memory on the node where the printing process lives
------------------
     ethr =  1.00E-02,  avg # of iterations =  2.0

     negative rho (up, down):  1.329E-02 0.000E+00

     add environment contribution to local potential

     total cpu time spent up to now is       23.4 secs

     total energy              =     -34.94408683 Ry
     estimated scf accuracy    <       0.02241157 Ry
     electrostatic embedding   =       0.00176715 Ry
     cavitation energy         =       0.01377503 Ry
     PV energy                 =      -0.00682266 Ry
     correction to one-el term =      -0.00000000 Ry

     iteration #  4     ecut=    30.00 Ry     beta= 0.70
     Davidson diagonalization with overlap

---- Real-time Memory Report at c_bands before calling an iterative solver
          1968 MiB given to the printing process from OS
             0 MiB allocation reported by mallinfo(arena+hblkhd)
         18223 MiB available memory on the node where the printing process lives
------------------
     ethr =  2.80E-04,  avg # of iterations =  2.0

     negative rho (up, down):  1.072E-03 0.000E+00

     add environment contribution to local potential

     total cpu time spent up to now is       31.7 secs

     total energy              =     -35.10568308 Ry
     estimated scf accuracy    <       0.00680967 Ry
     electrostatic embedding   =      -0.14952981 Ry
     cavitation energy         =       0.01377509 Ry
     PV energy                 =      -0.00682270 Ry
     correction to one-el term =      -2.28280122 Ry

     iteration #  5     ecut=    30.00 Ry     beta= 0.70
     Davidson diagonalization with overlap

---- Real-time Memory Report at c_bands before calling an iterative solver
          1974 MiB given to the printing process from OS
             0 MiB allocation reported by mallinfo(arena+hblkhd)
         18220 MiB available memory on the node where the printing process lives
------------------
     ethr =  8.51E-05,  avg # of iterations =  1.0

     negative rho (up, down):  1.309E-03 0.000E+00

     add environment contribution to local potential

     total cpu time spent up to now is       38.9 secs

     total energy              =     -35.10521072 Ry
     estimated scf accuracy    <       0.00154125 Ry
     electrostatic embedding   =      -0.15507854 Ry
     cavitation energy         =       0.01377503 Ry
     PV energy                 =      -0.00682266 Ry
     correction to one-el term =      -2.31405313 Ry

     iteration #  6     ecut=    30.00 Ry     beta= 0.70
     Davidson diagonalization with overlap

---- Real-time Memory Report at c_bands before calling an iterative solver
          1979 MiB given to the printing process from OS
             0 MiB allocation reported by mallinfo(arena+hblkhd)
         18210 MiB available memory on the node where the printing process lives
------------------
     ethr =  1.93E-05,  avg # of iterations =  2.0

     negative rho (up, down):  2.850E-04 0.000E+00

     add environment contribution to local potential

     total cpu time spent up to now is       46.5 secs

     total energy              =     -35.10564178 Ry
     estimated scf accuracy    <       0.00012402 Ry
     electrostatic embedding   =      -0.15620324 Ry
     cavitation energy         =       0.01377503 Ry
     PV energy                 =      -0.00682266 Ry
     correction to one-el term =      -2.30529556 Ry

     iteration #  7     ecut=    30.00 Ry     beta= 0.70
     Davidson diagonalization with overlap

---- Real-time Memory Report at c_bands before calling an iterative solver
          1984 MiB given to the printing process from OS
             0 MiB allocation reported by mallinfo(arena+hblkhd)
         18202 MiB available memory on the node where the printing process lives
------------------
     ethr =  1.55E-06,  avg # of iterations =  2.0

     negative rho (up, down):  2.713E-04 0.000E+00

     add environment contribution to local potential

     total cpu time spent up to now is       53.2 secs

     total energy              =     -35.10565877 Ry
     estimated scf accuracy    <       0.00000312 Ry
     electrostatic embedding   =      -0.15672321 Ry
     cavitation energy         =       0.01377503 Ry
     PV energy                 =      -0.00682266 Ry
     correction to one-el term =      -2.31040316 Ry

     iteration #  8     ecut=    30.00 Ry     beta= 0.70
     Davidson diagonalization with overlap

---- Real-time Memory Report at c_bands before calling an iterative solver
          1990 MiB given to the printing process from OS
             0 MiB allocation reported by mallinfo(arena+hblkhd)
         18196 MiB available memory on the node where the printing process lives
------------------
     ethr =  3.90E-08,  avg # of iterations =  2.0

     negative rho (up, down):  2.797E-04 0.000E+00

     add environment contribution to local potential

     total cpu time spent up to now is       61.1 secs

     total energy              =     -35.10566015 Ry
     estimated scf accuracy    <       0.00000173 Ry
     electrostatic embedding   =      -0.15673887 Ry
     cavitation energy         =       0.01377503 Ry
     PV energy                 =      -0.00682266 Ry
     correction to one-el term =      -2.31114328 Ry

     iteration #  9     ecut=    30.00 Ry     beta= 0.70
     Davidson diagonalization with overlap

---- Real-time Memory Report at c_bands before calling an iterative solver
          1995 MiB given to the printing process from OS
             0 MiB allocation reported by mallinfo(arena+hblkhd)
         18189 MiB available memory on the node where the printing process lives
------------------
     ethr =  2.16E-08,  avg # of iterations =  2.0

     negative rho (up, down):  2.792E-04 0.000E+00

     add environment contribution to local potential

     total cpu time spent up to now is       68.5 secs

     total energy              =     -35.10566041 Ry
     estimated scf accuracy    <       0.00000002 Ry
     electrostatic embedding   =      -0.15675551 Ry
     cavitation energy         =       0.01377503 Ry
     PV energy                 =      -0.00682266 Ry
     correction to one-el term =      -2.31082545 Ry

     iteration # 10     ecut=    30.00 Ry     beta= 0.70
     Davidson diagonalization with overlap

---- Real-time Memory Report at c_bands before calling an iterative solver
          2001 MiB given to the printing process from OS
             0 MiB allocation reported by mallinfo(arena+hblkhd)
         18181 MiB available memory on the node where the printing process lives
------------------
     ethr =  2.46E-10,  avg # of iterations =  3.0

     negative rho (up, down):  2.787E-04 0.000E+00

     add environment contribution to local potential

     total cpu time spent up to now is       75.3 secs

     total energy              =     -35.10566042 Ry
     estimated scf accuracy    <       0.00000002 Ry
     electrostatic embedding   =      -0.15675875 Ry
     cavitation energy         =       0.01377503 Ry
     PV energy                 =      -0.00682266 Ry
     correction to one-el term =      -2.31079868 Ry

     iteration # 11     ecut=    30.00 Ry     beta= 0.70
     Davidson diagonalization with overlap

---- Real-time Memory Report at c_bands before calling an iterative solver
          2001 MiB given to the printing process from OS
             0 MiB allocation reported by mallinfo(arena+hblkhd)
         18179 MiB available memory on the node where the printing process lives
------------------
     ethr =  2.46E-10,  avg # of iterations =  2.0

     negative rho (up, down):  2.786E-04 0.000E+00

     the potential shift due to the Gaussian-smeared nuclei is    -0.0240 ev

     total cpu time spent up to now is       79.8 secs

     End of self-consistent calculation

          k = 0.0000 0.0000 0.0000 ( 22119 PWs)   bands (ev):

   -28.8167 -16.3783 -16.3077 -10.3789

     occupation numbers 
     1.0000   1.0000   1.0000   1.0000

     highest occupied level (ev):   -10.3789

!    total energy              =     -35.10566042 Ry
     estimated scf accuracy    <          4.9E-10 Ry

     The total energy is the sum of the following terms:
     one-electron contribution =     -68.32725060 Ry
     hartree contribution      =      34.46016404 Ry
     xc contribution           =      -8.60527300 Ry
     ewald contribution        =       9.82731652 Ry
     electrostatic embedding   =      -0.15675375 Ry
     cavitation energy         =       0.01377503 Ry
     PV energy                 =      -0.00682266 Ry
     correction to one-el term =      -2.31081600 Ry

     WARNING: you are using the parabolic pbc correction;
              the potential shift above must be added to 
              band and Fermi energies.

     convergence has been achieved in  11 iterations
     The dielectric solvent contribution to forces
     atom    1 type  1   force =     0.01358093    0.00754623    0.00000002
     atom    2 type  1   force =    -0.00072376   -0.01587401    0.00000002
     atom    3 type  1   force =    -0.01365359    0.00798390    0.00000002
     atom    4 type  2   force =    -0.00143116   -0.00042832    0.00000012


     Forces acting on atoms (cartesian axes, Ry/au):

     atom    1 type  1   force =     0.01728870    0.00905182    0.00000000
     atom    2 type  1   force =     0.00109227   -0.00752614    0.00000000
     atom    3 type  1   force =    -0.00873949    0.00633595    0.00000000
     atom    4 type  2   force =    -0.00964148   -0.00786164    0.00000000
     The non-local contrib.  to forces
     atom    1 type  1   force =    -0.18110843   -0.09954936    0.00000000
     atom    2 type  1   force =     0.00562742    0.20248277    0.00000000
     atom    3 type  1   force =     0.17445240   -0.10516570    0.00000000
     atom    4 type  2   force =    -0.00582212    0.00062946    0.00000000
     The ionic contribution  to forces
     atom    1 type  1   force =     3.35709704    1.84378405    0.00000000
     atom    2 type  1   force =    -0.10013818   -3.78203326   -0.00000000
     atom    3 type  1   force =    -3.24949118    1.96319837    0.00000000
     atom    4 type  2   force =    -0.00746768   -0.02494916    0.00000000
     The local contribution  to forces
     atom    1 type  1   force =    -3.17240415   -1.74282128    0.00000000
     atom    2 type  1   force =     0.09620568    3.58780967    0.00000000
     atom    3 type  1   force =     3.07983373   -1.85977287    0.00000000
     atom    4 type  2   force =     0.00495946    0.01679592    0.00000000
     The core correction contribution to forces
     atom    1 type  1   force =     0.00000000    0.00000000    0.00000000
     atom    2 type  1   force =     0.00000000    0.00000000    0.00000000
     atom    3 type  1   force =     0.00000000    0.00000000    0.00000000
     atom    4 type  2   force =     0.00000000    0.00000000    0.00000000
     The Hubbard contrib.    to forces
     atom    1 type  1   force =     0.00000000    0.00000000    0.00000000
     atom    2 type  1   force =     0.00000000    0.00000000    0.00000000
     atom    3 type  1   force =     0.00000000    0.00000000    0.00000000
     atom    4 type  2   force =     0.00000000    0.00000000    0.00000000
     The SCF correction term to forces
     atom    1 type  1   force =     0.00000211    0.00000115   -0.00000000
     atom    2 type  1   force =    -0.00000009   -0.00000235    0.00000000
     atom    3 type  1   force =    -0.00000204    0.00000121    0.00000000
     atom    4 type  2   force =    -0.00000119   -0.00000058    0.00000000

     Total force =     0.026645     Total SCF correction =     0.000004

     BFGS Geometry Optimization
     Energy error            =      0.0E+00 Ry
     Gradient error          =      1.7E-02 Ry/Bohr

     bfgs converged in   1 scf cycles and   0 bfgs steps
     (criteria: energy <  1.0E-04 Ry, force <  5.0E-02 Ry/Bohr)

     End of BFGS Geometry Optimization

     Final energy             =     -35.1056604233 Ry
Begin final coordinates

ATOMIC_POSITIONS (bohr)
H            12.2300000000       11.5000000000       10.0000000000
H            10.5600000000        8.7500000000       10.0000000000
H             9.0200000000       11.5700000000       10.0000000000
O            10.6100000000       10.6100000000       10.0000000000
End final coordinates




     init_run     :      6.30s CPU      7.08s WALL (       1 calls)
     electrons    :     64.76s CPU     72.72s WALL (       1 calls)
     forces       :     19.13s CPU     19.84s WALL (       1 calls)

     Called by init_run:
     wfcinit      :      0.06s CPU      0.06s WALL (       1 calls)
     wfcinit:atom :      0.00s CPU      0.00s WALL (       1 calls)
     wfcinit:wfcr :      0.05s CPU      0.05s WALL (       1 calls)
     potinit      :      2.47s CPU      2.84s WALL (       1 calls)
     hinit0       :      3.04s CPU      3.13s WALL (       1 calls)

     Called by electrons:
     c_bands      :      1.17s CPU      1.24s WALL (      11 calls)
     sum_band     :      4.83s CPU      5.96s WALL (      11 calls)
     v_of_rho     :      6.08s CPU      6.56s WALL (      12 calls)
     v_h          :      0.38s CPU      0.38s WALL (      12 calls)
     v_xc         :      5.70s CPU      6.18s WALL (      12 calls)
     newd         :      3.47s CPU      4.78s WALL (      12 calls)
     mix_rho      :      0.84s CPU      1.15s WALL (      11 calls)

     Called by c_bands:
     init_us_2    :      0.08s CPU      0.08s WALL (      23 calls)
     init_us_2:cp :      0.08s CPU      0.08s WALL (      23 calls)
     cegterg      :      1.10s CPU      1.17s WALL (      11 calls)

     Called by sum_band:
     sum_band:wei :      0.00s CPU      0.00s WALL (      11 calls)
     sum_band:loo :      0.25s CPU      0.37s WALL (      11 calls)
     sum_band:buf :      0.00s CPU      0.00s WALL (      11 calls)
     sum_band:ini :      0.04s CPU      0.04s WALL (      11 calls)
     sum_band:cal :      0.01s CPU      0.01s WALL (      11 calls)
     sum_band:bec :      0.00s CPU      0.00s WALL (      11 calls)
     addusdens    :      3.80s CPU      4.80s WALL (      11 calls)
     addusd:skk   :      0.14s CPU      0.20s WALL (      22 calls)
     addusd:dgemm :      0.45s CPU      1.33s WALL (      22 calls)
     addusd:qvan2 :      2.25s CPU      2.25s WALL (      22 calls)

     Called by *egterg:
     cdiaghg      :      0.00s CPU      0.00s WALL (      34 calls)
     cegterg:over :      0.02s CPU      0.02s WALL (      23 calls)
     cegterg:upda :      0.02s CPU      0.02s WALL (      23 calls)
     cegterg:last :      0.02s CPU      0.02s WALL (      23 calls)
     h_psi        :      1.03s CPU      1.10s WALL (      35 calls)
     s_psi        :      0.02s CPU      0.02s WALL (      35 calls)
     g_psi        :      0.01s CPU      0.01s WALL (      23 calls)

     Called by h_psi:
     h_psi:calbec :      0.02s CPU      0.02s WALL (      35 calls)
     vloc_psi     :      0.98s CPU      1.04s WALL (      35 calls)
     add_vuspsi   :      0.02s CPU      0.03s WALL (      35 calls)

     General routines
     calbec       :      0.03s CPU      0.04s WALL (      50 calls)
     fft          :      2.95s CPU      3.11s WALL (     156 calls)
     ffts         :      0.08s CPU      0.08s WALL (      23 calls)
     fftw         :      0.99s CPU      1.11s WALL (     320 calls)
     interpolate  :      0.29s CPU      0.30s WALL (      12 calls)

     Parallel routines

     Environ routines

     PWSCF        :   1m30.29s CPU   1m39.76s WALL


   This run was terminated on:   7:33:17   3May2022            

=------------------------------------------------------------------------------=
   JOB DONE.
=------------------------------------------------------------------------------=
