
     Program PWSCF v.7.0 starts on  3May2022 at  7:22:21 

     This program is part of the open-source Quantum ESPRESSO suite
     for quantum simulation of materials; please cite
         "P. Giannozzi et al., J. Phys.:Condens. Matter 21 395502 (2009);
         "P. Giannozzi et al., J. Phys.:Condens. Matter 29 465901 (2017);
         "P. Giannozzi et al., J. Chem. Phys. 152 154105 (2020);
          URL http://www.quantum-espresso.org", 
     in publications or presentations arising from this work. More details at
     http://www.quantum-espresso.org/quote

     Parallel version (MPI), running on     1 processors

     MPI processes distributed on     1 nodes
     19351 MiB available memory on the printing compute node when the environment starts

     Waiting for input...
     Reading input from standard input
Warning: card &CELL ignored
Warning: card / ignored

     Current dimensions of program PWSCF are:
     Max number of different atomic species (ntypx) = 10
     Max number of k-points (npk) =  40000
     Max angular momentum in pseudopotentials (lmaxx) =  4

     Reading input from environ.in:
     * using electronic solvent mode
     * setting boundary derivatives method to SCCS default
     
     file H.pbe-rrkjus.UPF: wavefunction(s)  1S renormalized
     file O.pbe-rrkjus.UPF: wavefunction(s)  2S renormalized

     Subspace diagonalization in iterative solution of the eigenvalue problem:
     a serial algorithm will be used


     G-vector sticks info
     --------------------
     sticks:   dense  smooth     PW     G-vecs:    dense   smooth      PW
     Sum        9549    3809    949               701475   177509   22119

     Using Slab Decomposition



     bravais-lattice index     =            1
     lattice parameter (alat)  =      20.0000  a.u.
     unit-cell volume          =    8000.0000 (a.u.)^3
     number of atoms/cell      =            2
     number of atomic types    =            2
     number of electrons       =         8.00
     number of Kohn-Sham states=            4
     kinetic-energy cutoff     =      30.0000  Ry
     charge density cutoff     =     300.0000  Ry
     scf convergence threshold =      5.0E-09
     mixing beta               =       0.7000
     number of iterations used =            8  plain     mixing
     energy convergence thresh.=      1.0E-04
     force convergence thresh. =      5.0E-03
     Exchange-correlation= SLA  PW   PBE  PBE
                           (   1   4   3   4   0   0   0)
     nstep                     =           50


     ================================================================================

                                  Environ Setup Summary

     ================================================================================

     Please cite

          O. Andreussi, I. Dabo and N. Marzari, J. Chem. Phys. 136, 064102 (2012)

     in publications or presentations arising from this work.

     ================================================================================

     Parameters
     ==========

     compensation onset threshold      =               0.1000E+00

     Electrostatic Setup
     ===================

     electrostatic problem to solve    =                  poisson
     numerical solver adopted          =                   direct
     type of auxiliary density adopted =                     none
     numerical core for poisson        =                      fft
     type of pbc corrections           =                parabolic
     numerical core for corrections    =                      1da

     ================================================================================


     celldm(1)=  20.000000  celldm(2)=   0.000000  celldm(3)=   0.000000
     celldm(4)=   0.000000  celldm(5)=   0.000000  celldm(6)=   0.000000

     crystal axes: (cart. coord. in units of alat)
               a(1) = (   1.000000   0.000000   0.000000 )  
               a(2) = (   0.000000   1.000000   0.000000 )  
               a(3) = (   0.000000   0.000000   1.000000 )  

     reciprocal axes: (cart. coord. in units 2 pi/alat)
               b(1) = (  1.000000  0.000000  0.000000 )  
               b(2) = (  0.000000  1.000000  0.000000 )  
               b(3) = (  0.000000  0.000000  1.000000 )  


     PseudoPot. # 1 for H  read from file:
     MD5 check sum: 2d52a7f45632fd764c17cc6affed14c8
     Pseudo is Ultrasoft, Zval =  1.0
     Generated by new atomic code, or converted to UPF format
     Using radial grid of 1061 points,  2 beta functions with: 
                l(1) =   0
                l(2) =   0
     Q(r) pseudized with 0 coefficients 


     PseudoPot. # 2 for O  read from file:
     MD5 check sum: fadcf19ee70a498d3030e2e79cf929a4
     Pseudo is Ultrasoft, Zval =  6.0
     Generated by new atomic code, or converted to UPF format
     Using radial grid of 1269 points,  4 beta functions with: 
                l(1) =   0
                l(2) =   0
                l(3) =   1
                l(4) =   1
     Q(r) pseudized with 0 coefficients 


     atomic species   valence    mass     pseudopotential
        H              1.00     1.00800     H ( 1.00)
        O              6.00    15.99900     O ( 1.00)

      8 Sym. Ops. (no inversion) found


                                    s                        frac. trans.

      isym =  1     identity                                     

 cryst.   s( 1) = (     1          0          0      )
                  (     0          1          0      )
                  (     0          0          1      )

 cart.    s( 1) = (  1.0000000  0.0000000  0.0000000 )
                  (  0.0000000  1.0000000  0.0000000 )
                  (  0.0000000  0.0000000  1.0000000 )


      isym =  2     180 deg rotation - cart. axis [1,0,0]        

 cryst.   s( 2) = (     1          0          0      )
                  (     0         -1          0      )
                  (     0          0         -1      )

 cart.    s( 2) = (  1.0000000  0.0000000  0.0000000 )
                  (  0.0000000 -1.0000000  0.0000000 )
                  (  0.0000000  0.0000000 -1.0000000 )


      isym =  3      90 deg rotation - cart. axis [-1,0,0]       

 cryst.   s( 3) = (     1          0          0      )
                  (     0          0         -1      )
                  (     0          1          0      )

 cart.    s( 3) = (  1.0000000  0.0000000  0.0000000 )
                  (  0.0000000  0.0000000  1.0000000 )
                  (  0.0000000 -1.0000000  0.0000000 )


      isym =  4      90 deg rotation - cart. axis [1,0,0]        

 cryst.   s( 4) = (     1          0          0      )
                  (     0          0          1      )
                  (     0         -1          0      )

 cart.    s( 4) = (  1.0000000  0.0000000  0.0000000 )
                  (  0.0000000  0.0000000 -1.0000000 )
                  (  0.0000000  1.0000000  0.0000000 )


      isym =  5     inv. 180 deg rotation - cart. axis [0,0,1]   

 cryst.   s( 5) = (     1          0          0      )
                  (     0          1          0      )
                  (     0          0         -1      )

 cart.    s( 5) = (  1.0000000  0.0000000  0.0000000 )
                  (  0.0000000  1.0000000  0.0000000 )
                  (  0.0000000  0.0000000 -1.0000000 )


      isym =  6     inv. 180 deg rotation - cart. axis [0,1,0]   

 cryst.   s( 6) = (     1          0          0      )
                  (     0         -1          0      )
                  (     0          0          1      )

 cart.    s( 6) = (  1.0000000  0.0000000  0.0000000 )
                  (  0.0000000 -1.0000000  0.0000000 )
                  (  0.0000000  0.0000000  1.0000000 )


      isym =  7     inv. 180 deg rotation - cart. axis [0,1,1]   

 cryst.   s( 7) = (     1          0          0      )
                  (     0          0         -1      )
                  (     0         -1          0      )

 cart.    s( 7) = (  1.0000000  0.0000000  0.0000000 )
                  (  0.0000000  0.0000000 -1.0000000 )
                  (  0.0000000 -1.0000000  0.0000000 )


      isym =  8     inv. 180 deg rotation - cart. axis [0,1,-1]  

 cryst.   s( 8) = (     1          0          0      )
                  (     0          0          1      )
                  (     0          1          0      )

 cart.    s( 8) = (  1.0000000  0.0000000  0.0000000 )
                  (  0.0000000  0.0000000  1.0000000 )
                  (  0.0000000  1.0000000  0.0000000 )


     point group C_4v (4mm) 
     there are  5 classes
     the character table:

       E     2C4   C2    2s_v  2s_d 
A_1    1.00  1.00  1.00  1.00  1.00
A_2    1.00  1.00  1.00 -1.00 -1.00
B_1    1.00 -1.00  1.00  1.00 -1.00
B_2    1.00 -1.00  1.00 -1.00  1.00
E      2.00  0.00 -2.00  0.00  0.00

     the symmetry operations in each class and the name of the first element:

     E        1
          identity                                               
     2C4      3    4
           90 deg rotation - cart. axis [-1,0,0]                 
     C2       2
          180 deg rotation - cart. axis [1,0,0]                  
     2s_v     5    6
          inv. 180 deg rotation - cart. axis [0,0,1]             
     2s_d     7    8
          inv. 180 deg rotation - cart. axis [0,1,1]             

   Cartesian axes

     site n.     atom                  positions (alat units)
         1           O   tau(   1) = (   0.5000000   0.5000000   0.5000000  )
         2           H   tau(   2) = (   0.5920000   0.5000000   0.5000000  )

   Crystallographic axes

     site n.     atom                  positions (cryst. coord.)
         1           O   tau(   1) = (  0.5000000  0.5000000  0.5000000  )
         2           H   tau(   2) = (  0.5920000  0.5000000  0.5000000  )

     number of k points=     1
                       cart. coord. in units 2pi/alat
        k(    1) = (   0.0000000   0.0000000   0.0000000), wk =   2.0000000

                       cryst. coord.
        k(    1) = (   0.0000000   0.0000000   0.0000000), wk =   2.0000000

     Dense  grid:   701475 G-vectors     FFT dimensions: ( 120, 120, 120)

     Smooth grid:   177509 G-vectors     FFT dimensions: (  72,  72,  72)

     Dynamical RAM for                 wfc:       1.35 MB

     Dynamical RAM for     wfc (w. buffer):       1.35 MB

     Dynamical RAM for           str. fact:      21.41 MB

     Dynamical RAM for           local pot:       0.00 MB

     Dynamical RAM for          nlocal pot:       3.39 MB

     Dynamical RAM for                qrad:       0.79 MB

     Dynamical RAM for          rho,v,vnew:      71.66 MB

     Dynamical RAM for               rhoin:      23.89 MB

     Dynamical RAM for            rho*nmix:     171.26 MB

     Dynamical RAM for           G-vectors:      41.49 MB

     Dynamical RAM for          h,s,v(r/c):       0.00 MB

     Dynamical RAM for          <psi|beta>:       0.00 MB

     Dynamical RAM for                 psi:       2.71 MB

     Dynamical RAM for                hpsi:       2.71 MB

     Dynamical RAM for                spsi:       2.71 MB

     Dynamical RAM for      wfcinit/wfcrot:       3.39 MB

     Dynamical RAM for           addusdens:     470.96 MB

     Dynamical RAM for          addusforce:     476.31 MB

     Estimated static dynamical RAM per process >     262.01 MB

     Estimated max dynamical RAM per process >     909.59 MB

     Initial potential from superposition of free atoms

     starting charge       6.9038, renormalised to       8.0000

     negative rho (up, down):  9.269E-04 0.000E+00
     Starting wfcs are    5 randomized atomic wfcs

     total cpu time spent up to now is        2.1 secs

     Self-consistent Calculation

     iteration #  1     ecut=    30.00 Ry     beta= 0.70
     Davidson diagonalization with overlap

---- Real-time Memory Report at c_bands before calling an iterative solver
          1090 MiB given to the printing process from OS
             0 MiB allocation reported by mallinfo(arena+hblkhd)
         18776 MiB available memory on the node where the printing process lives
------------------
     ethr =  1.00E-02,  avg # of iterations =  3.0

     negative rho (up, down):  1.800E-04 0.000E+00

     total cpu time spent up to now is        3.8 secs

     total energy              =     -32.53706875 Ry
     estimated scf accuracy    <       1.22459780 Ry
     electrostatic embedding   =      -0.00137445 Ry
     correction to one-el term =      -0.00000000 Ry

     iteration #  2     ecut=    30.00 Ry     beta= 0.70
     Davidson diagonalization with overlap

---- Real-time Memory Report at c_bands before calling an iterative solver
          1150 MiB given to the printing process from OS
             0 MiB allocation reported by mallinfo(arena+hblkhd)
         18720 MiB available memory on the node where the printing process lives
------------------
     ethr =  1.00E-02,  avg # of iterations =  3.0

     negative rho (up, down):  1.087E-02 0.000E+00

     total cpu time spent up to now is        5.7 secs

     total energy              =     -32.91598517 Ry
     estimated scf accuracy    <       1.84273309 Ry
     electrostatic embedding   =      -0.00137445 Ry
     correction to one-el term =      -0.00000000 Ry

     iteration #  3     ecut=    30.00 Ry     beta= 0.70
     Davidson diagonalization with overlap

---- Real-time Memory Report at c_bands before calling an iterative solver
          1156 MiB given to the printing process from OS
             0 MiB allocation reported by mallinfo(arena+hblkhd)
         18715 MiB available memory on the node where the printing process lives
------------------
     ethr =  1.00E-02,  avg # of iterations =  2.0

     negative rho (up, down):  5.326E-03 0.000E+00

     add environment contribution to local potential

     total cpu time spent up to now is        7.8 secs

     total energy              =     -33.11948072 Ry
     estimated scf accuracy    <       0.07091635 Ry
     electrostatic embedding   =      -0.00137445 Ry
     correction to one-el term =      -0.00000000 Ry

     iteration #  4     ecut=    30.00 Ry     beta= 0.70
     Davidson diagonalization with overlap

---- Real-time Memory Report at c_bands before calling an iterative solver
          1162 MiB given to the printing process from OS
             0 MiB allocation reported by mallinfo(arena+hblkhd)
         18683 MiB available memory on the node where the printing process lives
------------------
     ethr =  8.86E-04,  avg # of iterations =  5.0

     negative rho (up, down):  1.760E-04 0.000E+00

     add environment contribution to local potential

     total cpu time spent up to now is        9.9 secs

     total energy              =     -33.00576543 Ry
     estimated scf accuracy    <       0.08387014 Ry
     electrostatic embedding   =       0.12966535 Ry
     correction to one-el term =      -2.16869996 Ry

     iteration #  5     ecut=    30.00 Ry     beta= 0.70
     Davidson diagonalization with overlap

---- Real-time Memory Report at c_bands before calling an iterative solver
          1167 MiB given to the printing process from OS
             0 MiB allocation reported by mallinfo(arena+hblkhd)
         18706 MiB available memory on the node where the printing process lives
------------------
     ethr =  8.86E-04,  avg # of iterations =  2.0

     negative rho (up, down):  1.556E-06 0.000E+00

     add environment contribution to local potential

     total cpu time spent up to now is       11.8 secs

     total energy              =     -33.02181264 Ry
     estimated scf accuracy    <       0.00061159 Ry
     electrostatic embedding   =       0.12745189 Ry
     correction to one-el term =      -2.14897868 Ry

     iteration #  6     ecut=    30.00 Ry     beta= 0.70
     Davidson diagonalization with overlap

---- Real-time Memory Report at c_bands before calling an iterative solver
          1173 MiB given to the printing process from OS
             0 MiB allocation reported by mallinfo(arena+hblkhd)
         18701 MiB available memory on the node where the printing process lives
------------------
     ethr =  7.64E-06,  avg # of iterations =  6.0

     negative rho (up, down):  1.359E-04 0.000E+00

     add environment contribution to local potential

     total cpu time spent up to now is       13.9 secs

     total energy              =     -33.02292264 Ry
     estimated scf accuracy    <       0.01958178 Ry
     electrostatic embedding   =       0.12664181 Ry
     correction to one-el term =      -2.14150801 Ry

     iteration #  7     ecut=    30.00 Ry     beta= 0.70
     Davidson diagonalization with overlap

---- Real-time Memory Report at c_bands before calling an iterative solver
          1178 MiB given to the printing process from OS
             0 MiB allocation reported by mallinfo(arena+hblkhd)
         18694 MiB available memory on the node where the printing process lives
------------------
     ethr =  7.64E-06,  avg # of iterations =  5.0

     negative rho (up, down):  9.919E-05 0.000E+00

     add environment contribution to local potential

     total cpu time spent up to now is       15.8 secs

     total energy              =     -33.02307720 Ry
     estimated scf accuracy    <       0.00368793 Ry
     electrostatic embedding   =       0.12760928 Ry
     correction to one-el term =      -2.15006542 Ry

     iteration #  8     ecut=    30.00 Ry     beta= 0.70
     Davidson diagonalization with overlap

---- Real-time Memory Report at c_bands before calling an iterative solver
          1183 MiB given to the printing process from OS
             0 MiB allocation reported by mallinfo(arena+hblkhd)
         18691 MiB available memory on the node where the printing process lives
------------------
     ethr =  7.64E-06,  avg # of iterations =  2.0

     negative rho (up, down):  3.791E-05 0.000E+00

     add environment contribution to local potential

     total cpu time spent up to now is       17.7 secs

     total energy              =     -33.02313747 Ry
     estimated scf accuracy    <       0.00082821 Ry
     electrostatic embedding   =       0.12817012 Ry
     correction to one-el term =      -2.15505452 Ry

     iteration #  9     ecut=    30.00 Ry     beta= 0.70
     Davidson diagonalization with overlap

---- Real-time Memory Report at c_bands before calling an iterative solver
          1189 MiB given to the printing process from OS
             0 MiB allocation reported by mallinfo(arena+hblkhd)
         18685 MiB available memory on the node where the printing process lives
------------------
     ethr =  7.64E-06,  avg # of iterations =  2.0

     negative rho (up, down):  1.180E-05 0.000E+00

     add environment contribution to local potential

     total cpu time spent up to now is       19.7 secs

     total energy              =     -33.02321343 Ry
     estimated scf accuracy    <       0.00016469 Ry
     electrostatic embedding   =       0.12836027 Ry
     correction to one-el term =      -2.15675515 Ry

     iteration # 10     ecut=    30.00 Ry     beta= 0.70
     Davidson diagonalization with overlap

---- Real-time Memory Report at c_bands before calling an iterative solver
          1194 MiB given to the printing process from OS
             0 MiB allocation reported by mallinfo(arena+hblkhd)
         18679 MiB available memory on the node where the printing process lives
------------------
     ethr =  2.06E-06,  avg # of iterations =  2.0

     negative rho (up, down):  4.915E-06 0.000E+00

     add environment contribution to local potential

     total cpu time spent up to now is       21.7 secs

     total energy              =     -33.02320341 Ry
     estimated scf accuracy    <       0.00009552 Ry
     electrostatic embedding   =       0.12841337 Ry
     correction to one-el term =      -2.15723385 Ry

     iteration # 11     ecut=    30.00 Ry     beta= 0.70
     Davidson diagonalization with overlap

---- Real-time Memory Report at c_bands before calling an iterative solver
          1194 MiB given to the printing process from OS
             0 MiB allocation reported by mallinfo(arena+hblkhd)
         18676 MiB available memory on the node where the printing process lives
------------------
     ethr =  1.19E-06,  avg # of iterations =  4.0

     negative rho (up, down):  2.584E-06 0.000E+00

     add environment contribution to local potential

     total cpu time spent up to now is       23.7 secs

     total energy              =     -33.02324136 Ry
     estimated scf accuracy    <       0.00001043 Ry
     electrostatic embedding   =       0.12850392 Ry
     correction to one-el term =      -2.15804501 Ry

     iteration # 12     ecut=    30.00 Ry     beta= 0.70
     Davidson diagonalization with overlap

---- Real-time Memory Report at c_bands before calling an iterative solver
          1194 MiB given to the printing process from OS
             0 MiB allocation reported by mallinfo(arena+hblkhd)
         18684 MiB available memory on the node where the printing process lives
------------------
     ethr =  1.30E-07,  avg # of iterations =  2.0

     negative rho (up, down):  3.039E-06 0.000E+00

     add environment contribution to local potential

     total cpu time spent up to now is       25.5 secs

     total energy              =     -33.02324384 Ry
     estimated scf accuracy    <       0.00002044 Ry
     electrostatic embedding   =       0.12853361 Ry
     correction to one-el term =      -2.15831028 Ry

     iteration # 13     ecut=    30.00 Ry     beta= 0.70
     Davidson diagonalization with overlap

---- Real-time Memory Report at c_bands before calling an iterative solver
          1194 MiB given to the printing process from OS
             0 MiB allocation reported by mallinfo(arena+hblkhd)
         18686 MiB available memory on the node where the printing process lives
------------------
     ethr =  1.30E-07,  avg # of iterations =  1.0

     negative rho (up, down):  2.796E-06 0.000E+00

     add environment contribution to local potential

     total cpu time spent up to now is       27.5 secs

     total energy              =     -33.02324060 Ry
     estimated scf accuracy    <       0.00002811 Ry
     electrostatic embedding   =       0.12854694 Ry
     correction to one-el term =      -2.15842901 Ry

     iteration # 14     ecut=    30.00 Ry     beta= 0.70
     Davidson diagonalization with overlap

---- Real-time Memory Report at c_bands before calling an iterative solver
          1194 MiB given to the printing process from OS
             0 MiB allocation reported by mallinfo(arena+hblkhd)
         18686 MiB available memory on the node where the printing process lives
------------------
     ethr =  1.30E-07,  avg # of iterations =  1.0

     negative rho (up, down):  2.365E-06 0.000E+00

     add environment contribution to local potential

     total cpu time spent up to now is       29.4 secs

     total energy              =     -33.02323790 Ry
     estimated scf accuracy    <       0.00001504 Ry
     electrostatic embedding   =       0.12850300 Ry
     correction to one-el term =      -2.15803174 Ry

     iteration # 15     ecut=    30.00 Ry     beta= 0.70
     Davidson diagonalization with overlap

---- Real-time Memory Report at c_bands before calling an iterative solver
          1194 MiB given to the printing process from OS
             0 MiB allocation reported by mallinfo(arena+hblkhd)
         18685 MiB available memory on the node where the printing process lives
------------------
     ethr =  1.30E-07,  avg # of iterations =  2.0

     negative rho (up, down):  2.332E-06 0.000E+00

     add environment contribution to local potential

     total cpu time spent up to now is       31.3 secs

     total energy              =     -33.02324076 Ry
     estimated scf accuracy    <       0.00000061 Ry
     electrostatic embedding   =       0.12842481 Ry
     correction to one-el term =      -2.15733119 Ry

     iteration # 16     ecut=    30.00 Ry     beta= 0.70
     Davidson diagonalization with overlap

---- Real-time Memory Report at c_bands before calling an iterative solver
          1194 MiB given to the printing process from OS
             0 MiB allocation reported by mallinfo(arena+hblkhd)
         18686 MiB available memory on the node where the printing process lives
------------------
     ethr =  7.61E-09,  avg # of iterations =  3.0

     negative rho (up, down):  2.065E-06 0.000E+00

     add environment contribution to local potential

     total cpu time spent up to now is       33.2 secs

     total energy              =     -33.02324283 Ry
     estimated scf accuracy    <       0.00000058 Ry
     electrostatic embedding   =       0.12843247 Ry
     correction to one-el term =      -2.15740048 Ry

     iteration # 17     ecut=    30.00 Ry     beta= 0.70
     Davidson diagonalization with overlap

---- Real-time Memory Report at c_bands before calling an iterative solver
          1194 MiB given to the printing process from OS
             0 MiB allocation reported by mallinfo(arena+hblkhd)
         18684 MiB available memory on the node where the printing process lives
------------------
     ethr =  7.23E-09,  avg # of iterations =  6.0

     negative rho (up, down):  2.180E-06 0.000E+00

     add environment contribution to local potential

     total cpu time spent up to now is       35.1 secs

     total energy              =     -33.02324273 Ry
     estimated scf accuracy    <       0.00001093 Ry
     electrostatic embedding   =       0.12832997 Ry
     correction to one-el term =      -2.15648313 Ry

     iteration # 18     ecut=    30.00 Ry     beta= 0.70
     Davidson diagonalization with overlap

---- Real-time Memory Report at c_bands before calling an iterative solver
          1194 MiB given to the printing process from OS
             0 MiB allocation reported by mallinfo(arena+hblkhd)
         18685 MiB available memory on the node where the printing process lives
------------------
     ethr =  7.23E-09,  avg # of iterations =  3.0

     negative rho (up, down):  2.124E-06 0.000E+00

     add environment contribution to local potential

     total cpu time spent up to now is       37.1 secs

     total energy              =     -33.02324166 Ry
     estimated scf accuracy    <       0.00000495 Ry
     electrostatic embedding   =       0.12834878 Ry
     correction to one-el term =      -2.15665386 Ry

     iteration # 19     ecut=    30.00 Ry     beta= 0.70
     Davidson diagonalization with overlap

---- Real-time Memory Report at c_bands before calling an iterative solver
          1194 MiB given to the printing process from OS
             0 MiB allocation reported by mallinfo(arena+hblkhd)
         18684 MiB available memory on the node where the printing process lives
------------------
     ethr =  7.23E-09,  avg # of iterations =  3.0

     negative rho (up, down):  2.000E-06 0.000E+00

     add environment contribution to local potential

     total cpu time spent up to now is       39.3 secs

     total energy              =     -33.02324056 Ry
     estimated scf accuracy    <       0.00000146 Ry
     electrostatic embedding   =       0.12836452 Ry
     correction to one-el term =      -2.15679591 Ry

     iteration # 20     ecut=    30.00 Ry     beta= 0.70
     Davidson diagonalization with overlap

---- Real-time Memory Report at c_bands before calling an iterative solver
          1194 MiB given to the printing process from OS
             0 MiB allocation reported by mallinfo(arena+hblkhd)
         18684 MiB available memory on the node where the printing process lives
------------------
     ethr =  7.23E-09,  avg # of iterations =  5.0

     negative rho (up, down):  1.974E-06 0.000E+00

     add environment contribution to local potential

     total cpu time spent up to now is       41.8 secs

     total energy              =     -33.02324112 Ry
     estimated scf accuracy    <       0.00000058 Ry
     electrostatic embedding   =       0.12838109 Ry
     correction to one-el term =      -2.15694528 Ry

     iteration # 21     ecut=    30.00 Ry     beta= 0.70
     Davidson diagonalization with overlap

---- Real-time Memory Report at c_bands before calling an iterative solver
          1194 MiB given to the printing process from OS
             0 MiB allocation reported by mallinfo(arena+hblkhd)
         18685 MiB available memory on the node where the printing process lives
------------------
     ethr =  7.21E-09,  avg # of iterations =  1.0

     negative rho (up, down):  1.969E-06 0.000E+00

     add environment contribution to local potential

     total cpu time spent up to now is       43.7 secs

     total energy              =     -33.02324111 Ry
     estimated scf accuracy    <       0.00000040 Ry
     electrostatic embedding   =       0.12837756 Ry
     correction to one-el term =      -2.15691367 Ry

     iteration # 22     ecut=    30.00 Ry     beta= 0.70
     Davidson diagonalization with overlap

---- Real-time Memory Report at c_bands before calling an iterative solver
          1194 MiB given to the printing process from OS
             0 MiB allocation reported by mallinfo(arena+hblkhd)
         18686 MiB available memory on the node where the printing process lives
------------------
     ethr =  5.03E-09,  avg # of iterations =  1.0

     negative rho (up, down):  1.949E-06 0.000E+00

     add environment contribution to local potential

     total cpu time spent up to now is       45.5 secs

     total energy              =     -33.02324113 Ry
     estimated scf accuracy    <       0.00000045 Ry
     electrostatic embedding   =       0.12837524 Ry
     correction to one-el term =      -2.15689294 Ry

     iteration # 23     ecut=    30.00 Ry     beta= 0.70
     Davidson diagonalization with overlap

---- Real-time Memory Report at c_bands before calling an iterative solver
          1194 MiB given to the printing process from OS
             0 MiB allocation reported by mallinfo(arena+hblkhd)
         18684 MiB available memory on the node where the printing process lives
------------------
     ethr =  5.03E-09,  avg # of iterations =  1.0

     negative rho (up, down):  1.964E-06 0.000E+00

     add environment contribution to local potential

     total cpu time spent up to now is       47.2 secs

     total energy              =     -33.02324120 Ry
     estimated scf accuracy    <       0.00000049 Ry
     electrostatic embedding   =       0.12836791 Ry
     correction to one-el term =      -2.15682724 Ry

     iteration # 24     ecut=    30.00 Ry     beta= 0.70
     Davidson diagonalization with overlap

---- Real-time Memory Report at c_bands before calling an iterative solver
          1194 MiB given to the printing process from OS
             0 MiB allocation reported by mallinfo(arena+hblkhd)
         18683 MiB available memory on the node where the printing process lives
------------------
     ethr =  5.03E-09,  avg # of iterations =  1.0

     negative rho (up, down):  1.949E-06 0.000E+00

     add environment contribution to local potential

     total cpu time spent up to now is       49.1 secs

     total energy              =     -33.02324127 Ry
     estimated scf accuracy    <       0.00000017 Ry
     electrostatic embedding   =       0.12836750 Ry
     correction to one-el term =      -2.15682377 Ry

     iteration # 25     ecut=    30.00 Ry     beta= 0.70
     Davidson diagonalization with overlap

---- Real-time Memory Report at c_bands before calling an iterative solver
          1194 MiB given to the printing process from OS
             0 MiB allocation reported by mallinfo(arena+hblkhd)
         18684 MiB available memory on the node where the printing process lives
------------------
     ethr =  2.09E-09,  avg # of iterations =  2.0

     negative rho (up, down):  1.927E-06 0.000E+00

     add environment contribution to local potential

     total cpu time spent up to now is       51.2 secs

     total energy              =     -33.02324135 Ry
     estimated scf accuracy    <       0.00000003 Ry
     electrostatic embedding   =       0.12836181 Ry
     correction to one-el term =      -2.15677292 Ry

     iteration # 26     ecut=    30.00 Ry     beta= 0.70
     Davidson diagonalization with overlap

---- Real-time Memory Report at c_bands before calling an iterative solver
          1194 MiB given to the printing process from OS
             0 MiB allocation reported by mallinfo(arena+hblkhd)
         18684 MiB available memory on the node where the printing process lives
------------------
     ethr =  3.22E-10,  avg # of iterations =  3.0

     negative rho (up, down):  1.923E-06 0.000E+00

     add environment contribution to local potential

     total cpu time spent up to now is       53.3 secs

     total energy              =     -33.02324135 Ry
     estimated scf accuracy    <       0.00000001 Ry
     electrostatic embedding   =       0.12835460 Ry
     correction to one-el term =      -2.15670846 Ry

     iteration # 27     ecut=    30.00 Ry     beta= 0.70
     Davidson diagonalization with overlap

---- Real-time Memory Report at c_bands before calling an iterative solver
          1194 MiB given to the printing process from OS
             0 MiB allocation reported by mallinfo(arena+hblkhd)
         18684 MiB available memory on the node where the printing process lives
------------------
     ethr =  1.40E-10,  avg # of iterations =  2.0

     negative rho (up, down):  1.927E-06 0.000E+00

     add environment contribution to local potential

     total cpu time spent up to now is       55.3 secs

     total energy              =     -33.02324133 Ry
     estimated scf accuracy    <       0.00000001 Ry
     electrostatic embedding   =       0.12835424 Ry
     correction to one-el term =      -2.15670519 Ry

     iteration # 28     ecut=    30.00 Ry     beta= 0.70
     Davidson diagonalization with overlap

---- Real-time Memory Report at c_bands before calling an iterative solver
          1194 MiB given to the printing process from OS
             0 MiB allocation reported by mallinfo(arena+hblkhd)
         18684 MiB available memory on the node where the printing process lives
------------------
     ethr =  1.40E-10,  avg # of iterations =  1.0

     negative rho (up, down):  1.929E-06 0.000E+00

     the potential shift due to the Gaussian-smeared nuclei is    -0.0187 ev

     total cpu time spent up to now is       57.1 secs

     End of self-consistent calculation

          k = 0.0000 0.0000 0.0000 ( 22119 PWs)   bands (ev):

   -14.4519  -1.6835   1.9050   1.9050

     occupation numbers 
     1.0000   1.0000   1.0000   1.0000

     highest occupied level (ev):     1.9050

!    total energy              =     -33.02324130 Ry
     estimated scf accuracy    <          4.8E-09 Ry

     The total energy is the sum of the following terms:
     one-electron contribution =     -53.72965220 Ry
     hartree contribution      =      31.12650190 Ry
     xc contribution           =      -7.97285407 Ry
     ewald contribution        =      -0.41886970 Ry
     electrostatic embedding   =       0.12835629 Ry
     correction to one-el term =      -2.15672351 Ry

     WARNING: you are using the parabolic pbc correction;
              the potential shift above must be added to 
              band and Fermi energies.

     convergence has been achieved in  28 iterations
     The dielectric solvent contribution to forces
     atom    1 type  2   force =    -0.00165218    0.00000336    0.00000336
     atom    2 type  1   force =    -0.00220221    0.00000056    0.00000056


     Forces acting on atoms (cartesian axes, Ry/au):

     atom    1 type  2   force =    -0.01225385    0.00000000    0.00000000
     atom    2 type  1   force =     0.01225385    0.00000000    0.00000000
     The non-local contrib.  to forces
     atom    1 type  2   force =     1.87457812    0.00000000    0.00000000
     atom    2 type  1   force =    -0.18290890    0.00000000    0.00000000
     The ionic contribution  to forces
     atom    1 type  2   force =    -3.53257121   -0.00000000   -0.00000000
     atom    2 type  1   force =     3.53257121   -0.00000000    0.00000000
     The local contribution  to forces
     atom    1 type  2   force =     1.64720656    0.00000000    0.00000000
     atom    2 type  1   force =    -3.33540062    0.00000000    0.00000000
     The core correction contribution to forces
     atom    1 type  2   force =     0.00000000    0.00000000    0.00000000
     atom    2 type  1   force =     0.00000000    0.00000000    0.00000000
     The Hubbard contrib.    to forces
     atom    1 type  2   force =     0.00000000    0.00000000    0.00000000
     atom    2 type  1   force =     0.00000000    0.00000000    0.00000000
     The SCF correction term to forces
     atom    1 type  2   force =     0.00000392    0.00000000    0.00000000
     atom    2 type  1   force =     0.00001341    0.00000000    0.00000000

     Total force =     0.017330     Total SCF correction =     0.000014

     BFGS Geometry Optimization
     Energy error            =      0.0E+00 Ry
     Gradient error          =      1.2E-02 Ry/Bohr

     number of scf cycles    =   1
     number of bfgs steps    =   0

     energy             new  =     -33.0232412959 Ry

     new trust radius        =       0.0122538475 bohr
     new conv_thr            =       0.0000000050 Ry


ATOMIC_POSITIONS (bohr)
O             9.9877461525       10.0000000000       10.0000000000
H            11.8522538475       10.0000000000       10.0000000000



     NEW-OLD atomic charge density approx. for the potential

     negative rho (up, down):  4.154E-06 0.000E+00

     add environment contribution to local potential

     total cpu time spent up to now is       60.3 secs

     Self-consistent Calculation

     iteration #  1     ecut=    30.00 Ry     beta= 0.70
     Davidson diagonalization with overlap

---- Real-time Memory Report at c_bands before calling an iterative solver
          1207 MiB given to the printing process from OS
             0 MiB allocation reported by mallinfo(arena+hblkhd)
         18735 MiB available memory on the node where the printing process lives
------------------
     ethr =  1.00E-06,  avg # of iterations =  4.0

     negative rho (up, down):  1.816E-06 0.000E+00

     add environment contribution to local potential

     total cpu time spent up to now is       62.4 secs

     total energy              =     -33.02299535 Ry
     estimated scf accuracy    <       0.00046459 Ry
     electrostatic embedding   =       0.12836200 Ry
     correction to one-el term =      -2.15675893 Ry

     iteration #  2     ecut=    30.00 Ry     beta= 0.70
     Davidson diagonalization with overlap

---- Real-time Memory Report at c_bands before calling an iterative solver
          1207 MiB given to the printing process from OS
             0 MiB allocation reported by mallinfo(arena+hblkhd)
         18698 MiB available memory on the node where the printing process lives
------------------
     ethr =  5.81E-06,  avg # of iterations =  5.0

     negative rho (up, down):  1.184E-05 0.000E+00

     add environment contribution to local potential

     total cpu time spent up to now is       64.5 secs

     total energy              =     -33.02293230 Ry
     estimated scf accuracy    <       0.00207641 Ry
     electrostatic embedding   =       0.12818189 Ry
     correction to one-el term =      -2.15516220 Ry

     iteration #  3     ecut=    30.00 Ry     beta= 0.70
     Davidson diagonalization with overlap

---- Real-time Memory Report at c_bands before calling an iterative solver
          1207 MiB given to the printing process from OS
             0 MiB allocation reported by mallinfo(arena+hblkhd)
         18692 MiB available memory on the node where the printing process lives
------------------
     ethr =  5.81E-06,  avg # of iterations =  3.0

     negative rho (up, down):  3.777E-06 0.000E+00

     add environment contribution to local potential

     total cpu time spent up to now is       66.5 secs

     total energy              =     -33.02320640 Ry
     estimated scf accuracy    <       0.00002815 Ry
     electrostatic embedding   =       0.12834884 Ry
     correction to one-el term =      -2.15662996 Ry

     iteration #  4     ecut=    30.00 Ry     beta= 0.70
     Davidson diagonalization with overlap

---- Real-time Memory Report at c_bands before calling an iterative solver
          1207 MiB given to the printing process from OS
             0 MiB allocation reported by mallinfo(arena+hblkhd)
         18687 MiB available memory on the node where the printing process lives
------------------
     ethr =  3.52E-07,  avg # of iterations =  5.0

     negative rho (up, down):  2.054E-06 0.000E+00

     add environment contribution to local potential

     total cpu time spent up to now is       68.6 secs

     total energy              =     -33.02323924 Ry
     estimated scf accuracy    <       0.00005381 Ry
     electrostatic embedding   =       0.12846050 Ry
     correction to one-el term =      -2.15762850 Ry

     iteration #  5     ecut=    30.00 Ry     beta= 0.70
     Davidson diagonalization with overlap

---- Real-time Memory Report at c_bands before calling an iterative solver
          1207 MiB given to the printing process from OS
             0 MiB allocation reported by mallinfo(arena+hblkhd)
         18682 MiB available memory on the node where the printing process lives
------------------
     ethr =  3.52E-07,  avg # of iterations =  1.0

     negative rho (up, down):  2.102E-06 0.000E+00

     add environment contribution to local potential

     total cpu time spent up to now is       70.5 secs

     total energy              =     -33.02323811 Ry
     estimated scf accuracy    <       0.00002238 Ry
     electrostatic embedding   =       0.12840726 Ry
     correction to one-el term =      -2.15715290 Ry

     iteration #  6     ecut=    30.00 Ry     beta= 0.70
     Davidson diagonalization with overlap

---- Real-time Memory Report at c_bands before calling an iterative solver
          1207 MiB given to the printing process from OS
             0 MiB allocation reported by mallinfo(arena+hblkhd)
         18676 MiB available memory on the node where the printing process lives
------------------
     ethr =  2.80E-07,  avg # of iterations =  1.0

     negative rho (up, down):  2.013E-06 0.000E+00

     add environment contribution to local potential

     total cpu time spent up to now is       72.4 secs

     total energy              =     -33.02323780 Ry
     estimated scf accuracy    <       0.00000839 Ry
     electrostatic embedding   =       0.12837660 Ry
     correction to one-el term =      -2.15688005 Ry

     iteration #  7     ecut=    30.00 Ry     beta= 0.70
     Davidson diagonalization with overlap

---- Real-time Memory Report at c_bands before calling an iterative solver
          1207 MiB given to the printing process from OS
             0 MiB allocation reported by mallinfo(arena+hblkhd)
         18671 MiB available memory on the node where the printing process lives
------------------
     ethr =  1.05E-07,  avg # of iterations =  4.0

     negative rho (up, down):  1.910E-06 0.000E+00

     add environment contribution to local potential

     total cpu time spent up to now is       74.4 secs

     total energy              =     -33.02324016 Ry
     estimated scf accuracy    <       0.00000036 Ry
     electrostatic embedding   =       0.12833103 Ry
     correction to one-el term =      -2.15647235 Ry

     iteration #  8     ecut=    30.00 Ry     beta= 0.70
     Davidson diagonalization with overlap

---- Real-time Memory Report at c_bands before calling an iterative solver
          1207 MiB given to the printing process from OS
             0 MiB allocation reported by mallinfo(arena+hblkhd)
         18666 MiB available memory on the node where the printing process lives
------------------
     ethr =  4.47E-09,  avg # of iterations =  2.0

     negative rho (up, down):  1.911E-06 0.000E+00

     add environment contribution to local potential

     total cpu time spent up to now is       76.4 secs

     total energy              =     -33.02324009 Ry
     estimated scf accuracy    <       0.00000025 Ry
     electrostatic embedding   =       0.12832476 Ry
     correction to one-el term =      -2.15641625 Ry

     iteration #  9     ecut=    30.00 Ry     beta= 0.70
     Davidson diagonalization with overlap

---- Real-time Memory Report at c_bands before calling an iterative solver
          1207 MiB given to the printing process from OS
             0 MiB allocation reported by mallinfo(arena+hblkhd)
         18660 MiB available memory on the node where the printing process lives
------------------
     ethr =  3.10E-09,  avg # of iterations =  1.0

     negative rho (up, down):  1.915E-06 0.000E+00

     add environment contribution to local potential

     total cpu time spent up to now is       78.5 secs

     total energy              =     -33.02323996 Ry
     estimated scf accuracy    <       0.00000014 Ry
     electrostatic embedding   =       0.12832824 Ry
     correction to one-el term =      -2.15644708 Ry

     iteration # 10     ecut=    30.00 Ry     beta= 0.70
     Davidson diagonalization with overlap

---- Real-time Memory Report at c_bands before calling an iterative solver
          1208 MiB given to the printing process from OS
             0 MiB allocation reported by mallinfo(arena+hblkhd)
         18654 MiB available memory on the node where the printing process lives
------------------
     ethr =  1.75E-09,  avg # of iterations =  2.0

     negative rho (up, down):  1.920E-06 0.000E+00

     add environment contribution to local potential

     total cpu time spent up to now is       80.5 secs

     total energy              =     -33.02323996 Ry
     estimated scf accuracy    <          6.3E-09 Ry
     electrostatic embedding   =       0.12833295 Ry
     correction to one-el term =      -2.15648890 Ry

     iteration # 11     ecut=    30.00 Ry     beta= 0.70
     Davidson diagonalization with overlap

---- Real-time Memory Report at c_bands before calling an iterative solver
          1208 MiB given to the printing process from OS
             0 MiB allocation reported by mallinfo(arena+hblkhd)
         18608 MiB available memory on the node where the printing process lives
------------------
     ethr =  7.85E-11,  avg # of iterations =  5.0

     negative rho (up, down):  1.925E-06 0.000E+00

     the potential shift due to the Gaussian-smeared nuclei is    -0.0187 ev

     total cpu time spent up to now is       82.4 secs

     End of self-consistent calculation

          k = 0.0000 0.0000 0.0000 ( 22119 PWs)   bands (ev):

   -14.3743  -1.6760   1.9046   1.9046

     occupation numbers 
     1.0000   1.0000   1.0000   1.0000

     highest occupied level (ev):     1.9046

!    total energy              =     -33.02323999 Ry
     estimated scf accuracy    <          2.9E-10 Ry

     The total energy is the sum of the following terms:
     one-electron contribution =     -53.57952000 Ry
     hartree contribution      =      31.04905403 Ry
     xc contribution           =      -7.96030216 Ry
     ewald contribution        =      -0.50430105 Ry
     electrostatic embedding   =       0.12833483 Ry
     correction to one-el term =      -2.15650565 Ry

     WARNING: you are using the parabolic pbc correction;
              the potential shift above must be added to 
              band and Fermi energies.

     convergence has been achieved in  11 iterations
     The dielectric solvent contribution to forces
     atom    1 type  2   force =    -0.00160399    0.00000336    0.00000336
     atom    2 type  1   force =    -0.00221984    0.00000056    0.00000056


     Forces acting on atoms (cartesian axes, Ry/au):

     atom    1 type  2   force =     0.01199330    0.00000000    0.00000000
     atom    2 type  1   force =    -0.01199330    0.00000000    0.00000000
     The non-local contrib.  to forces
     atom    1 type  2   force =     1.86507502    0.00000000    0.00000000
     atom    2 type  1   force =    -0.17503750    0.00000000    0.00000000
     The ionic contribution  to forces
     atom    1 type  2   force =    -3.43983969    0.00000000    0.00000000
     atom    2 type  1   force =     3.43983969    0.00000000    0.00000000
     The local contribution  to forces
     atom    1 type  2   force =     1.58824982    0.00000000    0.00000000
     atom    2 type  1   force =    -3.27469743    0.00000000    0.00000000
     The core correction contribution to forces
     atom    1 type  2   force =     0.00000000    0.00000000    0.00000000
     atom    2 type  1   force =     0.00000000    0.00000000    0.00000000
     The Hubbard contrib.    to forces
     atom    1 type  2   force =     0.00000000    0.00000000    0.00000000
     atom    2 type  1   force =     0.00000000    0.00000000    0.00000000
     The SCF correction term to forces
     atom    1 type  2   force =    -0.00001258    0.00000000   -0.00000000
     atom    2 type  1   force =    -0.00000294   -0.00000000   -0.00000000

     Total force =     0.016961     Total SCF correction =     0.000013
     Energy error            =      1.3E-06 Ry
     Gradient error          =      1.2E-02 Ry/Bohr

     number of scf cycles    =   2
     number of bfgs steps    =   1

     energy             old  =     -33.0232412959 Ry
     energy             new  =     -33.0232399936 Ry

     CASE: energy            _new > energy            _old

     new trust radius        =       0.0061004700 bohr
     new conv_thr            =       0.0000000050 Ry


ATOMIC_POSITIONS (bohr)
O             9.9938995300       10.0000000000       10.0000000000
H            11.8461004700       10.0000000000       10.0000000000



     NEW-OLD atomic charge density approx. for the potential

     negative rho (up, down):  2.603E-06 0.000E+00

     add environment contribution to local potential

     total cpu time spent up to now is       85.4 secs

     Self-consistent Calculation

     iteration #  1     ecut=    30.00 Ry     beta= 0.70
     Davidson diagonalization with overlap

---- Real-time Memory Report at c_bands before calling an iterative solver
          1208 MiB given to the printing process from OS
             0 MiB allocation reported by mallinfo(arena+hblkhd)
         18733 MiB available memory on the node where the printing process lives
------------------
     ethr =  1.00E-06,  avg # of iterations =  3.0

     negative rho (up, down):  2.017E-06 0.000E+00

     add environment contribution to local potential

     total cpu time spent up to now is       87.5 secs

     total energy              =     -33.02325906 Ry
     estimated scf accuracy    <       0.00010620 Ry
     electrostatic embedding   =       0.12833387 Ry
     correction to one-el term =      -2.15650494 Ry

     iteration #  2     ecut=    30.00 Ry     beta= 0.70
     Davidson diagonalization with overlap

---- Real-time Memory Report at c_bands before calling an iterative solver
          1208 MiB given to the printing process from OS
             0 MiB allocation reported by mallinfo(arena+hblkhd)
         18696 MiB available memory on the node where the printing process lives
------------------
     ethr =  1.33E-06,  avg # of iterations =  5.0

     negative rho (up, down):  4.432E-06 0.000E+00

     add environment contribution to local potential

     total cpu time spent up to now is       89.5 secs

     total energy              =     -33.02324259 Ry
     estimated scf accuracy    <       0.00047346 Ry
     electrostatic embedding   =       0.12841068 Ry
     correction to one-el term =      -2.15718525 Ry

     iteration #  3     ecut=    30.00 Ry     beta= 0.70
     Davidson diagonalization with overlap

---- Real-time Memory Report at c_bands before calling an iterative solver
          1208 MiB given to the printing process from OS
             0 MiB allocation reported by mallinfo(arena+hblkhd)
         18691 MiB available memory on the node where the printing process lives
------------------
     ethr =  1.33E-06,  avg # of iterations =  3.0

     negative rho (up, down):  2.241E-06 0.000E+00

     add environment contribution to local potential

     total cpu time spent up to now is       91.6 secs

     total energy              =     -33.02330933 Ry
     estimated scf accuracy    <       0.00000422 Ry
     electrostatic embedding   =       0.12832960 Ry
     correction to one-el term =      -2.15647239 Ry

     iteration #  4     ecut=    30.00 Ry     beta= 0.70
     Davidson diagonalization with overlap

---- Real-time Memory Report at c_bands before calling an iterative solver
          1208 MiB given to the printing process from OS
             0 MiB allocation reported by mallinfo(arena+hblkhd)
         18684 MiB available memory on the node where the printing process lives
------------------
     ethr =  5.28E-08,  avg # of iterations =  6.0

     negative rho (up, down):  1.876E-06 0.000E+00

     add environment contribution to local potential

     total cpu time spent up to now is       93.7 secs

     total energy              =     -33.02331588 Ry
     estimated scf accuracy    <       0.00001378 Ry
     electrostatic embedding   =       0.12827836 Ry
     correction to one-el term =      -2.15601372 Ry

     iteration #  5     ecut=    30.00 Ry     beta= 0.70
     Davidson diagonalization with overlap

---- Real-time Memory Report at c_bands before calling an iterative solver
          1208 MiB given to the printing process from OS
             0 MiB allocation reported by mallinfo(arena+hblkhd)
         18679 MiB available memory on the node where the printing process lives
------------------
     ethr =  5.28E-08,  avg # of iterations =  1.0

     negative rho (up, down):  1.926E-06 0.000E+00

     add environment contribution to local potential

     total cpu time spent up to now is       95.7 secs

     total energy              =     -33.02331431 Ry
     estimated scf accuracy    <       0.00000589 Ry
     electrostatic embedding   =       0.12830665 Ry
     correction to one-el term =      -2.15626674 Ry

     iteration #  6     ecut=    30.00 Ry     beta= 0.70
     Davidson diagonalization with overlap

---- Real-time Memory Report at c_bands before calling an iterative solver
          1208 MiB given to the printing process from OS
             0 MiB allocation reported by mallinfo(arena+hblkhd)
         18675 MiB available memory on the node where the printing process lives
------------------
     ethr =  5.28E-08,  avg # of iterations =  2.0

     negative rho (up, down):  1.940E-06 0.000E+00

     add environment contribution to local potential

     total cpu time spent up to now is       97.8 secs

     total energy              =     -33.02331459 Ry
     estimated scf accuracy    <       0.00000056 Ry
     electrostatic embedding   =       0.12833657 Ry
     correction to one-el term =      -2.15653317 Ry

     iteration #  7     ecut=    30.00 Ry     beta= 0.70
     Davidson diagonalization with overlap

---- Real-time Memory Report at c_bands before calling an iterative solver
          1208 MiB given to the printing process from OS
             0 MiB allocation reported by mallinfo(arena+hblkhd)
         18670 MiB available memory on the node where the printing process lives
------------------
     ethr =  7.00E-09,  avg # of iterations =  4.0

     negative rho (up, down):  1.938E-06 0.000E+00

     add environment contribution to local potential

     total cpu time spent up to now is       99.9 secs

     total energy              =     -33.02331483 Ry
     estimated scf accuracy    <       0.00000004 Ry
     electrostatic embedding   =       0.12835316 Ry
     correction to one-el term =      -2.15668231 Ry

     iteration #  8     ecut=    30.00 Ry     beta= 0.70
     Davidson diagonalization with overlap

---- Real-time Memory Report at c_bands before calling an iterative solver
          1208 MiB given to the printing process from OS
             0 MiB allocation reported by mallinfo(arena+hblkhd)
         18665 MiB available memory on the node where the printing process lives
------------------
     ethr =  4.67E-10,  avg # of iterations =  2.0

     negative rho (up, down):  1.934E-06 0.000E+00

     add environment contribution to local potential

     total cpu time spent up to now is      102.2 secs

     total energy              =     -33.02331488 Ry
     estimated scf accuracy    <       0.00000005 Ry
     electrostatic embedding   =       0.12835333 Ry
     correction to one-el term =      -2.15668381 Ry

     iteration #  9     ecut=    30.00 Ry     beta= 0.70
     Davidson diagonalization with overlap

---- Real-time Memory Report at c_bands before calling an iterative solver
          1208 MiB given to the printing process from OS
             0 MiB allocation reported by mallinfo(arena+hblkhd)
         18658 MiB available memory on the node where the printing process lives
------------------
     ethr =  4.67E-10,  avg # of iterations =  2.0

     negative rho (up, down):  1.929E-06 0.000E+00

     add environment contribution to local potential

     total cpu time spent up to now is      104.3 secs

     total energy              =     -33.02331492 Ry
     estimated scf accuracy    <       0.00000002 Ry
     electrostatic embedding   =       0.12835000 Ry
     correction to one-el term =      -2.15665425 Ry

     iteration # 10     ecut=    30.00 Ry     beta= 0.70
     Davidson diagonalization with overlap

---- Real-time Memory Report at c_bands before calling an iterative solver
          1208 MiB given to the printing process from OS
             0 MiB allocation reported by mallinfo(arena+hblkhd)
         18654 MiB available memory on the node where the printing process lives
------------------
     ethr =  2.31E-10,  avg # of iterations =  2.0

     negative rho (up, down):  1.927E-06 0.000E+00

     the potential shift due to the Gaussian-smeared nuclei is    -0.0187 ev

     total cpu time spent up to now is      105.9 secs

     End of self-consistent calculation

          k = 0.0000 0.0000 0.0000 ( 22119 PWs)   bands (ev):

   -14.4128  -1.6797   1.9049   1.9049

     occupation numbers 
     1.0000   1.0000   1.0000   1.0000

     highest occupied level (ev):     1.9049

!    total energy              =     -33.02331492 Ry
     estimated scf accuracy    <          5.0E-11 Ry

     The total energy is the sum of the following terms:
     one-electron contribution =     -53.65432041 Ry
     hartree contribution      =      31.08748470 Ry
     xc contribution           =      -7.96651490 Ry
     ewald contribution        =      -0.46168501 Ry
     electrostatic embedding   =       0.12834684 Ry
     correction to one-el term =      -2.15662613 Ry

     WARNING: you are using the parabolic pbc correction;
              the potential shift above must be added to 
              band and Fermi energies.

     convergence has been achieved in  10 iterations
     The dielectric solvent contribution to forces
     atom    1 type  2   force =    -0.00162832    0.00000335    0.00000335
     atom    2 type  1   force =    -0.00221101    0.00000056    0.00000056


     Forces acting on atoms (cartesian axes, Ry/au):

     atom    1 type  2   force =     0.00010981    0.00000000    0.00000000
     atom    2 type  1   force =    -0.00010981    0.00000000    0.00000000
     The non-local contrib.  to forces
     atom    1 type  2   force =     1.86997259    0.00000000    0.00000000
     atom    2 type  1   force =    -0.17895688    0.00000000    0.00000000
     The ionic contribution  to forces
     atom    1 type  2   force =    -3.48594639   -0.00000000   -0.00000000
     atom    2 type  1   force =     3.48594639    0.00000000    0.00000000
     The local contribution  to forces
     atom    1 type  2   force =     1.61755929    0.00000000    0.00000000
     atom    2 type  1   force =    -3.30503500    0.00000000    0.00000000
     The core correction contribution to forces
     atom    1 type  2   force =     0.00000000    0.00000000    0.00000000
     atom    2 type  1   force =     0.00000000    0.00000000    0.00000000
     The Hubbard contrib.    to forces
     atom    1 type  2   force =     0.00000000    0.00000000    0.00000000
     atom    2 type  1   force =     0.00000000    0.00000000    0.00000000
     The SCF correction term to forces
     atom    1 type  2   force =     0.00000643   -0.00000000   -0.00000000
     atom    2 type  1   force =     0.00000047    0.00000000    0.00000000

     Total force =     0.000155     Total SCF correction =     0.000006
     Energy error            =      7.4E-05 Ry
     Gradient error          =      1.1E-04 Ry/Bohr

     bfgs converged in   3 scf cycles and   1 bfgs steps
     (criteria: energy <  1.0E-04 Ry, force <  5.0E-03 Ry/Bohr)

     End of BFGS Geometry Optimization

     Final energy             =     -33.0233149178 Ry

Begin final coordinates

ATOMIC_POSITIONS (bohr)
O             9.9938995300       10.0000000000       10.0000000000
H            11.8461004700       10.0000000000       10.0000000000
End final coordinates




     init_run     :      1.81s CPU      2.09s WALL (       1 calls)
     electrons    :     81.41s CPU     97.70s WALL (       3 calls)
     update_pot   :      1.48s CPU      1.62s WALL (       2 calls)
     forces       :      2.40s CPU      2.98s WALL (       3 calls)

     Called by init_run:
     wfcinit      :      0.04s CPU      0.04s WALL (       1 calls)
     wfcinit:atom :      0.00s CPU      0.00s WALL (       1 calls)
     wfcinit:wfcr :      0.03s CPU      0.03s WALL (       1 calls)
     potinit      :      0.56s CPU      0.65s WALL (       1 calls)
     hinit0       :      0.66s CPU      0.68s WALL (       1 calls)

     Called by electrons:
     c_bands      :      6.05s CPU      6.59s WALL (      49 calls)
     sum_band     :     21.86s CPU     27.68s WALL (      49 calls)
     v_of_rho     :     24.83s CPU     28.14s WALL (      52 calls)
     v_h          :      1.46s CPU      1.49s WALL (      52 calls)
     v_xc         :     23.38s CPU     26.64s WALL (      52 calls)
     newd         :     13.39s CPU     18.52s WALL (      52 calls)
     mix_rho      :      4.22s CPU      5.29s WALL (      49 calls)

     Called by c_bands:
     init_us_2    :      0.34s CPU      0.36s WALL (      99 calls)
     init_us_2:cp :      0.34s CPU      0.36s WALL (      99 calls)
     cegterg      :      5.76s CPU      6.29s WALL (      49 calls)

     Called by sum_band:
     sum_band:wei :      0.00s CPU      0.00s WALL (      49 calls)
     sum_band:loo :      1.08s CPU      1.42s WALL (      49 calls)
     sum_band:buf :      0.00s CPU      0.00s WALL (      49 calls)
     sum_band:ini :      0.17s CPU      0.19s WALL (      49 calls)
     sum_band:cal :      0.03s CPU      0.03s WALL (      49 calls)
     sum_band:bec :      0.00s CPU      0.00s WALL (      49 calls)
     addusdens    :     17.76s CPU     23.17s WALL (      49 calls)
     addusd:skk   :      0.23s CPU      0.25s WALL (      98 calls)
     addusd:dgemm :      2.09s CPU      6.38s WALL (      98 calls)
     addusd:qvan2 :     10.46s CPU     10.53s WALL (      98 calls)

     Called by *egterg:
     cdiaghg      :      0.01s CPU      0.01s WALL (     184 calls)
     cegterg:over :      0.13s CPU      0.13s WALL (     137 calls)
     cegterg:upda :      0.11s CPU      0.15s WALL (     137 calls)
     cegterg:last :      0.15s CPU      0.18s WALL (     122 calls)
     h_psi        :      5.17s CPU      5.56s WALL (     187 calls)
     s_psi        :      0.09s CPU      0.13s WALL (     187 calls)
     g_psi        :      0.04s CPU      0.04s WALL (     137 calls)

     Called by h_psi:
     h_psi:calbec :      0.09s CPU      0.11s WALL (     187 calls)
     vloc_psi     :      4.96s CPU      5.32s WALL (     187 calls)
     add_vuspsi   :      0.10s CPU      0.10s WALL (     187 calls)

     General routines
     calbec       :      0.12s CPU      0.14s WALL (     248 calls)
     fft          :     12.51s CPU     13.19s WALL (     678 calls)
     ffts         :      0.35s CPU      0.35s WALL (     101 calls)
     fftw         :      4.91s CPU      5.49s WALL (    1432 calls)
     interpolate  :      1.45s CPU      1.45s WALL (      52 calls)

     Parallel routines

     Environ routines

     PWSCF        :   1m29.35s CPU   1m46.96s WALL


   This run was terminated on:   7:24: 8   3May2022            

=------------------------------------------------------------------------------=
   JOB DONE.
=------------------------------------------------------------------------------=
