
     Program PWSCF v.6.7MaX starts on  3Feb2022 at 10:53:35 

     This program is part of the open-source Quantum ESPRESSO suite
     for quantum simulation of materials; please cite
         "P. Giannozzi et al., J. Phys.:Condens. Matter 21 395502 (2009);
         "P. Giannozzi et al., J. Phys.:Condens. Matter 29 465901 (2017);
          URL http://www.quantum-espresso.org", 
     in publications or presentations arising from this work. More details at
     http://www.quantum-espresso.org/quote

     Parallel version (MPI), running on     4 processors

     MPI processes distributed on     1 nodes
     R & G space division:  proc/nbgrp/npool/nimage =       4
     Waiting for input...
     Reading input from standard input
Warning: card &CELL ignored
Warning: card / ignored

     Current dimensions of program PWSCF are:
     Max number of different atomic species (ntypx) = 10
     Max number of k-points (npk) =  40000
     Max angular momentum in pseudopotentials (lmaxx) =  3

     Reading input from environ.in:
     * using electronic solvent mode
     * setting boundary derivatives method to SCCS default

     file H.pbe-rrkjus.UPF: wavefunction(s)  1S renormalized
     file O.pbe-rrkjus.UPF: wavefunction(s)  2S renormalized

     Subspace diagonalization in iterative solution of the eigenvalue problem:
     a serial algorithm will be used


     Parallelization info
     --------------------
     sticks:   dense  smooth     PW     G-vecs:    dense   smooth      PW
     Min        2386     952    237               175367    44376    5529
     Max        2388     953    238               175370    44379    5532
     Sum        9549    3809    949               701475   177509   22119



     bravais-lattice index     =            1
     lattice parameter (alat)  =      20.0000  a.u.
     unit-cell volume          =    8000.0000 (a.u.)^3
     number of atoms/cell      =            2
     number of atomic types    =            2
     number of electrons       =         8.00
     number of Kohn-Sham states=            4
     kinetic-energy cutoff     =      30.0000  Ry
     charge density cutoff     =     300.0000  Ry
     scf convergence threshold =      5.0E-09
     mixing beta               =       0.7000
     number of iterations used =            8  plain     mixing
     energy convergence thresh.=      1.0E-04
     force convergence thresh. =      5.0E-03
     Exchange-correlation= SLA  PW   PBE  PBE
                           (   1   4   3   4   0   0   0)
     nstep                     =           50


     ================================================================================

                                  Environ Setup Summary

     ================================================================================

     Please cite
         "O. Andreussi, I. Dabo and N. Marzari, J. Chem. Phys. 136, 064102 (2012)"
     in publications or presentations arising from this work.

     Parameters
     ==========

     compensation onset threshold      =               0.1000E+00

     Electrostatic Setup
     ===================

     electrostatic problem to solve    =                  poisson
     numerical solver adopted          =                   direct
     type of auxiliary density adopted =                     none
     numerical core for poisson        =                      fft
     type of pbc corrections           =                parabolic
     numerical core for corrections    =                      1da

     ================================================================================


     celldm(1)=  20.000000  celldm(2)=   0.000000  celldm(3)=   0.000000
     celldm(4)=   0.000000  celldm(5)=   0.000000  celldm(6)=   0.000000

     crystal axes: (cart. coord. in units of alat)
               a(1) = (   1.000000   0.000000   0.000000 )  
               a(2) = (   0.000000   1.000000   0.000000 )  
               a(3) = (   0.000000   0.000000   1.000000 )  

     reciprocal axes: (cart. coord. in units 2 pi/alat)
               b(1) = (  1.000000  0.000000  0.000000 )  
               b(2) = (  0.000000  1.000000  0.000000 )  
               b(3) = (  0.000000  0.000000  1.000000 )  


     PseudoPot. # 1 for H  read from file:
     /home/mat/q-e/pseudo/H.pbe-rrkjus.UPF
     MD5 check sum: 2d52a7f45632fd764c17cc6affed14c8
     Pseudo is Ultrasoft, Zval =  1.0
     Generated by new atomic code, or converted to UPF format
     Using radial grid of 1061 points,  2 beta functions with: 
                l(1) =   0
                l(2) =   0
     Q(r) pseudized with 0 coefficients 


     PseudoPot. # 2 for O  read from file:
     /home/mat/q-e/pseudo/O.pbe-rrkjus.UPF
     MD5 check sum: fadcf19ee70a498d3030e2e79cf929a4
     Pseudo is Ultrasoft, Zval =  6.0
     Generated by new atomic code, or converted to UPF format
     Using radial grid of 1269 points,  4 beta functions with: 
                l(1) =   0
                l(2) =   0
                l(3) =   1
                l(4) =   1
     Q(r) pseudized with 0 coefficients 


     atomic species   valence    mass     pseudopotential
        H              1.00     1.00800     H ( 1.00)
        O              6.00    15.99900     O ( 1.00)

      8 Sym. Ops. (no inversion) found


                                    s                        frac. trans.

      isym =  1     identity                                     

 cryst.   s( 1) = (     1          0          0      )
                  (     0          1          0      )
                  (     0          0          1      )

 cart.    s( 1) = (  1.0000000  0.0000000  0.0000000 )
                  (  0.0000000  1.0000000  0.0000000 )
                  (  0.0000000  0.0000000  1.0000000 )


      isym =  2     180 deg rotation - cart. axis [1,0,0]        

 cryst.   s( 2) = (     1          0          0      )
                  (     0         -1          0      )
                  (     0          0         -1      )

 cart.    s( 2) = (  1.0000000  0.0000000  0.0000000 )
                  (  0.0000000 -1.0000000  0.0000000 )
                  (  0.0000000  0.0000000 -1.0000000 )


      isym =  3      90 deg rotation - cart. axis [-1,0,0]       

 cryst.   s( 3) = (     1          0          0      )
                  (     0          0         -1      )
                  (     0          1          0      )

 cart.    s( 3) = (  1.0000000  0.0000000  0.0000000 )
                  (  0.0000000  0.0000000  1.0000000 )
                  (  0.0000000 -1.0000000  0.0000000 )


      isym =  4      90 deg rotation - cart. axis [1,0,0]        

 cryst.   s( 4) = (     1          0          0      )
                  (     0          0          1      )
                  (     0         -1          0      )

 cart.    s( 4) = (  1.0000000  0.0000000  0.0000000 )
                  (  0.0000000  0.0000000 -1.0000000 )
                  (  0.0000000  1.0000000  0.0000000 )


      isym =  5     inv. 180 deg rotation - cart. axis [0,0,1]   

 cryst.   s( 5) = (     1          0          0      )
                  (     0          1          0      )
                  (     0          0         -1      )

 cart.    s( 5) = (  1.0000000  0.0000000  0.0000000 )
                  (  0.0000000  1.0000000  0.0000000 )
                  (  0.0000000  0.0000000 -1.0000000 )


      isym =  6     inv. 180 deg rotation - cart. axis [0,1,0]   

 cryst.   s( 6) = (     1          0          0      )
                  (     0         -1          0      )
                  (     0          0          1      )

 cart.    s( 6) = (  1.0000000  0.0000000  0.0000000 )
                  (  0.0000000 -1.0000000  0.0000000 )
                  (  0.0000000  0.0000000  1.0000000 )


      isym =  7     inv. 180 deg rotation - cart. axis [0,1,1]   

 cryst.   s( 7) = (     1          0          0      )
                  (     0          0         -1      )
                  (     0         -1          0      )

 cart.    s( 7) = (  1.0000000  0.0000000  0.0000000 )
                  (  0.0000000  0.0000000 -1.0000000 )
                  (  0.0000000 -1.0000000  0.0000000 )


      isym =  8     inv. 180 deg rotation - cart. axis [0,1,-1]  

 cryst.   s( 8) = (     1          0          0      )
                  (     0          0          1      )
                  (     0          1          0      )

 cart.    s( 8) = (  1.0000000  0.0000000  0.0000000 )
                  (  0.0000000  0.0000000  1.0000000 )
                  (  0.0000000  1.0000000  0.0000000 )


     point group C_4v (4mm) 
     there are  5 classes
     the character table:

       E     2C4   C2    2s_v  2s_d 
A_1    1.00  1.00  1.00  1.00  1.00
A_2    1.00  1.00  1.00 -1.00 -1.00
B_1    1.00 -1.00  1.00  1.00 -1.00
B_2    1.00 -1.00  1.00 -1.00  1.00
E      2.00  0.00 -2.00  0.00  0.00

     the symmetry operations in each class and the name of the first element:

     E        1
          identity                                               
     2C4      3    4
           90 deg rotation - cart. axis [-1,0,0]                 
     C2       2
          180 deg rotation - cart. axis [1,0,0]                  
     2s_v     5    6
          inv. 180 deg rotation - cart. axis [0,0,1]             
     2s_d     7    8
          inv. 180 deg rotation - cart. axis [0,1,1]             

   Cartesian axes

     site n.     atom                  positions (alat units)
         1           O   tau(   1) = (   0.5000000   0.5000000   0.5000000  )
         2           H   tau(   2) = (   0.5920000   0.5000000   0.5000000  )

   Crystallographic axes

     site n.     atom                  positions (cryst. coord.)
         1           O   tau(   1) = (  0.5000000  0.5000000  0.5000000  )
         2           H   tau(   2) = (  0.5920000  0.5000000  0.5000000  )

     number of k points=     1
                       cart. coord. in units 2pi/alat
        k(    1) = (   0.0000000   0.0000000   0.0000000), wk =   2.0000000

                       cryst. coord.
        k(    1) = (   0.0000000   0.0000000   0.0000000), wk =   2.0000000

     Dense  grid:   701475 G-vectors     FFT dimensions: ( 120, 120, 120)

     Smooth grid:   177509 G-vectors     FFT dimensions: (  72,  72,  72)

     Dynamical RAM for                 wfc:       0.34 MB

     Dynamical RAM for     wfc (w. buffer):       0.34 MB

     Dynamical RAM for           str. fact:       5.35 MB

     Dynamical RAM for           local pot:       0.00 MB

     Dynamical RAM for          nlocal pot:       0.85 MB

     Dynamical RAM for                qrad:       0.79 MB

     Dynamical RAM for          rho,v,vnew:      17.92 MB

     Dynamical RAM for               rhoin:       5.97 MB

     Dynamical RAM for            rho*nmix:      42.81 MB

     Dynamical RAM for           G-vectors:      10.37 MB

     Dynamical RAM for          h,s,v(r/c):       0.00 MB

     Dynamical RAM for          <psi|beta>:       0.00 MB

     Dynamical RAM for                 psi:       0.68 MB

     Dynamical RAM for                hpsi:       0.68 MB

     Dynamical RAM for                spsi:       0.68 MB

     Dynamical RAM for      wfcinit/wfcrot:       0.85 MB

     Dynamical RAM for           addusdens:     117.74 MB

     Dynamical RAM for          addusforce:     119.08 MB

     Estimated static dynamical RAM per process >     108.91 MB

     Estimated max dynamical RAM per process >     227.99 MB

     Estimated total dynamical RAM >     911.97 MB

     Initial potential from superposition of free atoms

     starting charge    6.90379, renormalised to    8.00000

     negative rho (up, down):  9.269E-04 0.000E+00
     Starting wfcs are    5 randomized atomic wfcs

     total cpu time spent up to now is        1.5 secs

     Self-consistent Calculation

     iteration #  1     ecut=    30.00 Ry     beta= 0.70
     Davidson diagonalization with overlap
     ethr =  1.00E-02,  avg # of iterations =  3.0

     negative rho (up, down):  1.791E-04 0.000E+00

     total cpu time spent up to now is        2.5 secs

     total energy              =     -32.53950166 Ry
     estimated scf accuracy    <       1.22142329 Ry
     electrostatic embedding   =      -0.00137445 Ry
     correction to one-el term =      -0.00000000 Ry

     iteration #  2     ecut=    30.00 Ry     beta= 0.70
     Davidson diagonalization with overlap
     ethr =  1.00E-02,  avg # of iterations =  3.0

     negative rho (up, down):  1.085E-02 0.000E+00

     total cpu time spent up to now is        3.4 secs

     total energy              =     -32.91625343 Ry
     estimated scf accuracy    <       1.83559622 Ry
     electrostatic embedding   =      -0.00137445 Ry
     correction to one-el term =      -0.00000000 Ry

     iteration #  3     ecut=    30.00 Ry     beta= 0.70
     Davidson diagonalization with overlap
     ethr =  1.00E-02,  avg # of iterations =  2.0

     negative rho (up, down):  5.313E-03 0.000E+00

     add environment contribution to local potential

     total cpu time spent up to now is        4.4 secs

     total energy              =     -33.11941412 Ry
     estimated scf accuracy    <       0.07002246 Ry
     electrostatic embedding   =      -0.00137445 Ry
     correction to one-el term =      -0.00000000 Ry

     iteration #  4     ecut=    30.00 Ry     beta= 0.70
     Davidson diagonalization with overlap
     ethr =  8.75E-04,  avg # of iterations =  5.0

     negative rho (up, down):  1.946E-04 0.000E+00

     add environment contribution to local potential

     total cpu time spent up to now is        5.5 secs

     total energy              =     -33.00536402 Ry
     estimated scf accuracy    <       0.08768511 Ry
     electrostatic embedding   =       0.12969835 Ry
     correction to one-el term =      -2.16898466 Ry

     iteration #  5     ecut=    30.00 Ry     beta= 0.70
     Davidson diagonalization with overlap
     ethr =  8.75E-04,  avg # of iterations =  2.0

     negative rho (up, down):  2.070E-06 0.000E+00

     add environment contribution to local potential

     total cpu time spent up to now is        6.5 secs

     total energy              =     -33.02154763 Ry
     estimated scf accuracy    <       0.00065588 Ry
     electrostatic embedding   =       0.12745705 Ry
     correction to one-el term =      -2.14902991 Ry

     iteration #  6     ecut=    30.00 Ry     beta= 0.70
     Davidson diagonalization with overlap
     ethr =  8.20E-06,  avg # of iterations =  6.0

     negative rho (up, down):  1.290E-04 0.000E+00

     add environment contribution to local potential

     total cpu time spent up to now is        7.6 secs

     total energy              =     -33.02294162 Ry
     estimated scf accuracy    <       0.01977472 Ry
     electrostatic embedding   =       0.12660070 Ry
     correction to one-el term =      -2.14115945 Ry

     iteration #  7     ecut=    30.00 Ry     beta= 0.70
     Davidson diagonalization with overlap
     ethr =  8.20E-06,  avg # of iterations =  5.0

     negative rho (up, down):  9.777E-05 0.000E+00

     add environment contribution to local potential

     total cpu time spent up to now is        8.6 secs

     total energy              =     -33.02307519 Ry
     estimated scf accuracy    <       0.00377689 Ry
     electrostatic embedding   =       0.12758215 Ry
     correction to one-el term =      -2.14983530 Ry

     iteration #  8     ecut=    30.00 Ry     beta= 0.70
     Davidson diagonalization with overlap
     ethr =  8.20E-06,  avg # of iterations =  2.0

     negative rho (up, down):  3.784E-05 0.000E+00

     add environment contribution to local potential

     total cpu time spent up to now is        9.7 secs

     total energy              =     -33.02313675 Ry
     estimated scf accuracy    <       0.00084990 Ry
     electrostatic embedding   =       0.12815683 Ry
     correction to one-el term =      -2.15494431 Ry

     iteration #  9     ecut=    30.00 Ry     beta= 0.70
     Davidson diagonalization with overlap
     ethr =  8.20E-06,  avg # of iterations =  2.0

     negative rho (up, down):  1.184E-05 0.000E+00

     add environment contribution to local potential

     total cpu time spent up to now is       10.7 secs

     total energy              =     -33.02321337 Ry
     estimated scf accuracy    <       0.00017078 Ry
     electrostatic embedding   =       0.12835165 Ry
     correction to one-el term =      -2.15668572 Ry

     iteration # 10     ecut=    30.00 Ry     beta= 0.70
     Davidson diagonalization with overlap
     ethr =  2.13E-06,  avg # of iterations =  2.0

     negative rho (up, down):  4.944E-06 0.000E+00

     add environment contribution to local potential

     total cpu time spent up to now is       11.7 secs

     total energy              =     -33.02320305 Ry
     estimated scf accuracy    <       0.00009715 Ry
     electrostatic embedding   =       0.12841016 Ry
     correction to one-el term =      -2.15721242 Ry

     iteration # 11     ecut=    30.00 Ry     beta= 0.70
     Davidson diagonalization with overlap
     ethr =  1.21E-06,  avg # of iterations =  4.0

     negative rho (up, down):  2.586E-06 0.000E+00

     add environment contribution to local potential

     total cpu time spent up to now is       12.7 secs

     total energy              =     -33.02324271 Ry
     estimated scf accuracy    <       0.00001181 Ry
     electrostatic embedding   =       0.12850535 Ry
     correction to one-el term =      -2.15806440 Ry

     iteration # 12     ecut=    30.00 Ry     beta= 0.70
     Davidson diagonalization with overlap
     ethr =  1.48E-07,  avg # of iterations =  2.0

     negative rho (up, down):  3.085E-06 0.000E+00

     add environment contribution to local potential

     total cpu time spent up to now is       13.7 secs

     total energy              =     -33.02324519 Ry
     estimated scf accuracy    <       0.00002256 Ry
     electrostatic embedding   =       0.12853464 Ry
     correction to one-el term =      -2.15832593 Ry

     iteration # 13     ecut=    30.00 Ry     beta= 0.70
     Davidson diagonalization with overlap
     ethr =  1.48E-07,  avg # of iterations =  1.0

     negative rho (up, down):  2.865E-06 0.000E+00

     add environment contribution to local potential

     total cpu time spent up to now is       14.7 secs

     total energy              =     -33.02324193 Ry
     estimated scf accuracy    <       0.00002987 Ry
     electrostatic embedding   =       0.12854738 Ry
     correction to one-el term =      -2.15843925 Ry

     iteration # 14     ecut=    30.00 Ry     beta= 0.70
     Davidson diagonalization with overlap
     ethr =  1.48E-07,  avg # of iterations =  1.0

     negative rho (up, down):  2.414E-06 0.000E+00

     add environment contribution to local potential

     total cpu time spent up to now is       15.7 secs

     total energy              =     -33.02323880 Ry
     estimated scf accuracy    <       0.00001713 Ry
     electrostatic embedding   =       0.12850811 Ry
     correction to one-el term =      -2.15808393 Ry

     iteration # 15     ecut=    30.00 Ry     beta= 0.70
     Davidson diagonalization with overlap
     ethr =  1.48E-07,  avg # of iterations =  2.0

     negative rho (up, down):  2.368E-06 0.000E+00

     add environment contribution to local potential

     total cpu time spent up to now is       16.7 secs

     total energy              =     -33.02324168 Ry
     estimated scf accuracy    <       0.00000083 Ry
     electrostatic embedding   =       0.12843208 Ry
     correction to one-el term =      -2.15740304 Ry

     iteration # 16     ecut=    30.00 Ry     beta= 0.70
     Davidson diagonalization with overlap
     ethr =  1.04E-08,  avg # of iterations =  2.0

     negative rho (up, down):  2.043E-06 0.000E+00

     add environment contribution to local potential

     total cpu time spent up to now is       17.7 secs

     total energy              =     -33.02324303 Ry
     estimated scf accuracy    <       0.00000131 Ry
     electrostatic embedding   =       0.12844172 Ry
     correction to one-el term =      -2.15749014 Ry

     iteration # 17     ecut=    30.00 Ry     beta= 0.70
     Davidson diagonalization with overlap
     ethr =  1.04E-08,  avg # of iterations =  5.0

     negative rho (up, down):  2.183E-06 0.000E+00

     add environment contribution to local potential

     total cpu time spent up to now is       18.7 secs

     total energy              =     -33.02324454 Ry
     estimated scf accuracy    <       0.00000713 Ry
     electrostatic embedding   =       0.12833275 Ry
     correction to one-el term =      -2.15651644 Ry

     iteration # 18     ecut=    30.00 Ry     beta= 0.70
     Davidson diagonalization with overlap
     ethr =  1.04E-08,  avg # of iterations =  1.0

     negative rho (up, down):  2.161E-06 0.000E+00

     add environment contribution to local potential

     total cpu time spent up to now is       19.7 secs

     total energy              =     -33.02324295 Ry
     estimated scf accuracy    <       0.00000666 Ry
     electrostatic embedding   =       0.12834232 Ry
     correction to one-el term =      -2.15660437 Ry

     iteration # 19     ecut=    30.00 Ry     beta= 0.70
     Davidson diagonalization with overlap
     ethr =  1.04E-08,  avg # of iterations =  2.0

     negative rho (up, down):  2.037E-06 0.000E+00

     add environment contribution to local potential

     total cpu time spent up to now is       20.8 secs

     total energy              =     -33.02324125 Ry
     estimated scf accuracy    <       0.00000273 Ry
     electrostatic embedding   =       0.12835703 Ry
     correction to one-el term =      -2.15673741 Ry

     iteration # 20     ecut=    30.00 Ry     beta= 0.70
     Davidson diagonalization with overlap
     ethr =  1.04E-08,  avg # of iterations =  5.0

     negative rho (up, down):  1.990E-06 0.000E+00

     add environment contribution to local potential

     total cpu time spent up to now is       21.8 secs

     total energy              =     -33.02324219 Ry
     estimated scf accuracy    <       0.00000059 Ry
     electrostatic embedding   =       0.12838020 Ry
     correction to one-el term =      -2.15694594 Ry

     iteration # 21     ecut=    30.00 Ry     beta= 0.70
     Davidson diagonalization with overlap
     ethr =  7.39E-09,  avg # of iterations =  2.0

     negative rho (up, down):  2.034E-06 0.000E+00

     add environment contribution to local potential

     total cpu time spent up to now is       22.8 secs

     total energy              =     -33.02324187 Ry
     estimated scf accuracy    <       0.00000006 Ry
     electrostatic embedding   =       0.12837074 Ry
     correction to one-el term =      -2.15686076 Ry

     iteration # 22     ecut=    30.00 Ry     beta= 0.70
     Davidson diagonalization with overlap
     ethr =  7.87E-10,  avg # of iterations =  6.0

     negative rho (up, down):  2.011E-06 0.000E+00

     add environment contribution to local potential

     total cpu time spent up to now is       23.9 secs

     total energy              =     -33.02324225 Ry
     estimated scf accuracy    <       0.00000397 Ry
     electrostatic embedding   =       0.12840535 Ry
     correction to one-el term =      -2.15717104 Ry

     iteration # 23     ecut=    30.00 Ry     beta= 0.70
     Davidson diagonalization with overlap
     ethr =  7.87E-10,  avg # of iterations =  3.0

     negative rho (up, down):  1.923E-06 0.000E+00

     add environment contribution to local potential

     total cpu time spent up to now is       24.9 secs

     total energy              =     -33.02324185 Ry
     estimated scf accuracy    <       0.00000244 Ry
     electrostatic embedding   =       0.12838333 Ry
     correction to one-el term =      -2.15697408 Ry

     iteration # 24     ecut=    30.00 Ry     beta= 0.70
     Davidson diagonalization with overlap
     ethr =  7.87E-10,  avg # of iterations =  6.0

     negative rho (up, down):  1.911E-06 0.000E+00

     add environment contribution to local potential

     total cpu time spent up to now is       25.9 secs

     total energy              =     -33.02324237 Ry
     estimated scf accuracy    <       0.00000015 Ry
     electrostatic embedding   =       0.12834149 Ry
     correction to one-el term =      -2.15660011 Ry

     iteration # 25     ecut=    30.00 Ry     beta= 0.70
     Davidson diagonalization with overlap
     ethr =  7.87E-10,  avg # of iterations =  2.0

     negative rho (up, down):  1.911E-06 0.000E+00

     add environment contribution to local potential

     total cpu time spent up to now is       26.9 secs

     total energy              =     -33.02324238 Ry
     estimated scf accuracy    <       0.00000007 Ry
     electrostatic embedding   =       0.12834855 Ry
     correction to one-el term =      -2.15666299 Ry

     iteration # 26     ecut=    30.00 Ry     beta= 0.70
     Davidson diagonalization with overlap
     ethr =  7.87E-10,  avg # of iterations =  1.0

     negative rho (up, down):  1.921E-06 0.000E+00

     add environment contribution to local potential

     total cpu time spent up to now is       27.9 secs

     total energy              =     -33.02324234 Ry
     estimated scf accuracy    <       0.00000005 Ry
     electrostatic embedding   =       0.12834957 Ry
     correction to one-el term =      -2.15667203 Ry

     iteration # 27     ecut=    30.00 Ry     beta= 0.70
     Davidson diagonalization with overlap
     ethr =  5.92E-10,  avg # of iterations =  2.0

     negative rho (up, down):  1.932E-06 0.000E+00

     add environment contribution to local potential

     total cpu time spent up to now is       28.9 secs

     total energy              =     -33.02324231 Ry
     estimated scf accuracy    <          6.0E-09 Ry
     electrostatic embedding   =       0.12835376 Ry
     correction to one-el term =      -2.15670946 Ry

     iteration # 28     ecut=    30.00 Ry     beta= 0.70
     Davidson diagonalization with overlap
     ethr =  7.44E-11,  avg # of iterations =  5.0

     negative rho (up, down):  1.926E-06 0.000E+00

     add environment contribution to local potential

     total cpu time spent up to now is       29.9 secs

     total energy              =     -33.02324233 Ry
     estimated scf accuracy    <       0.00000002 Ry
     electrostatic embedding   =       0.12835831 Ry
     correction to one-el term =      -2.15675004 Ry

     iteration # 29     ecut=    30.00 Ry     beta= 0.70
     Davidson diagonalization with overlap
     ethr =  7.44E-11,  avg # of iterations =  3.0

     negative rho (up, down):  1.925E-06 0.000E+00

     the potential shift due to the Gaussian-smeared nuclei is    -0.0187 ev

     total cpu time spent up to now is       30.7 secs

     End of self-consistent calculation

          k = 0.0000 0.0000 0.0000 ( 22119 PWs)   bands (ev):

   -14.4518  -1.6834   1.9051   1.9051

     occupation numbers 
     1.0000   1.0000   1.0000   1.0000

     highest occupied level (ev):     1.9051

!    total energy              =     -33.02324236 Ry
     estimated scf accuracy    <          2.1E-10 Ry

     The total energy is the sum of the following terms:
     one-electron contribution =     -53.72897743 Ry
     hartree contribution      =      31.12568869 Ry
     xc contribution           =      -7.97271869 Ry
     ewald contribution        =      -0.41886970 Ry
     electrostatic embedding   =       0.12835496 Ry
     correction to one-el term =      -2.15672020 Ry

     WARNING: you are using the parabolic pbc correction;
              the potential shift above must be added to 
              band and Fermi energies.

     convergence has been achieved in  29 iterations
     The global environment contribution to forces
     atom    1 type  2   force =    -0.00163805    0.00000336    0.00000336
     atom    2 type  1   force =    -0.00219985    0.00000056    0.00000056


     Forces acting on atoms (cartesian axes, Ry/au):

     atom    1 type  2   force =    -0.01224709    0.00000000    0.00000000
     atom    2 type  1   force =     0.01224709    0.00000000    0.00000000
     The non-local contrib.  to forces
     atom    1 type  2   force =     1.87461629    0.00000000    0.00000000
     atom    2 type  1   force =    -0.18291207    0.00000000    0.00000000
     The ionic contribution  to forces
     atom    1 type  2   force =    -3.53257121   -0.00000000   -0.00000000
     atom    2 type  1   force =     3.53257121    0.00000000    0.00000000
     The local contribution  to forces
     atom    1 type  2   force =     1.64720546    0.00000000    0.00000000
     atom    2 type  1   force =    -3.33535271   -0.00000000    0.00000000
     The core correction contribution to forces
     atom    1 type  2   force =     0.00000000    0.00000000    0.00000000
     atom    2 type  1   force =     0.00000000    0.00000000    0.00000000
     The Hubbard contrib.    to forces
     atom    1 type  2   force =     0.00000000    0.00000000    0.00000000
     atom    2 type  1   force =     0.00000000    0.00000000    0.00000000
     The SCF correction term to forces
     atom    1 type  2   force =    -0.00000282    0.00000000    0.00000000
     atom    2 type  1   force =    -0.00000275    0.00000000   -0.00000000

     Total force =     0.017320     Total SCF correction =     0.000004

     BFGS Geometry Optimization
     Energy error            =      0.0E+00
     Gradient error          =      1.2E-02

     number of scf cycles    =   1
     number of bfgs steps    =   0

     energy   new            =     -33.0232423593 Ry

     new trust radius        =       0.0122470880 bohr
     new conv_thr            =       0.0000000050 Ry


ATOMIC_POSITIONS (bohr)
O             9.9877529120       10.0000000000       10.0000000000
H            11.8522470880       10.0000000000       10.0000000000



     Writing output data file /home/mat/q-e/tempdir/ho.save/
     NEW-OLD atomic charge density approx. for the potential

     negative rho (up, down):  4.142E-06 0.000E+00

     add environment contribution to local potential

     total cpu time spent up to now is       32.3 secs

     Self-consistent Calculation

     iteration #  1     ecut=    30.00 Ry     beta= 0.70
     Davidson diagonalization with overlap
     ethr =  1.00E-06,  avg # of iterations =  4.0

     negative rho (up, down):  1.813E-06 0.000E+00

     add environment contribution to local potential

     total cpu time spent up to now is       33.4 secs

     total energy              =     -33.02300375 Ry
     estimated scf accuracy    <       0.00045190 Ry
     electrostatic embedding   =       0.12835826 Ry
     correction to one-el term =      -2.15673465 Ry

     iteration #  2     ecut=    30.00 Ry     beta= 0.70
     Davidson diagonalization with overlap
     ethr =  5.65E-06,  avg # of iterations =  5.0

     negative rho (up, down):  1.151E-05 0.000E+00

     add environment contribution to local potential

     total cpu time spent up to now is       34.4 secs

     total energy              =     -33.02294216 Ry
     estimated scf accuracy    <       0.00201646 Ry
     electrostatic embedding   =       0.12818139 Ry
     correction to one-el term =      -2.15516615 Ry

     iteration #  3     ecut=    30.00 Ry     beta= 0.70
     Davidson diagonalization with overlap
     ethr =  5.65E-06,  avg # of iterations =  3.0

     negative rho (up, down):  3.713E-06 0.000E+00

     add environment contribution to local potential

     total cpu time spent up to now is       35.4 secs

     total energy              =     -33.02320851 Ry
     estimated scf accuracy    <       0.00002725 Ry
     electrostatic embedding   =       0.12834618 Ry
     correction to one-el term =      -2.15661479 Ry

     iteration #  4     ecut=    30.00 Ry     beta= 0.70
     Davidson diagonalization with overlap
     ethr =  3.41E-07,  avg # of iterations =  5.0

     negative rho (up, down):  2.048E-06 0.000E+00

     add environment contribution to local potential

     total cpu time spent up to now is       36.4 secs

     total energy              =     -33.02324044 Ry
     estimated scf accuracy    <       0.00005267 Ry
     electrostatic embedding   =       0.12845703 Ry
     correction to one-el term =      -2.15760527 Ry

     iteration #  5     ecut=    30.00 Ry     beta= 0.70
     Davidson diagonalization with overlap
     ethr =  3.41E-07,  avg # of iterations =  1.0

     negative rho (up, down):  2.093E-06 0.000E+00

     add environment contribution to local potential

     total cpu time spent up to now is       37.4 secs

     total energy              =     -33.02323930 Ry
     estimated scf accuracy    <       0.00002178 Ry
     electrostatic embedding   =       0.12840399 Ry
     correction to one-el term =      -2.15713168 Ry

     iteration #  6     ecut=    30.00 Ry     beta= 0.70
     Davidson diagonalization with overlap
     ethr =  2.72E-07,  avg # of iterations =  1.0

     negative rho (up, down):  2.005E-06 0.000E+00

     add environment contribution to local potential

     total cpu time spent up to now is       38.4 secs

     total energy              =     -33.02323905 Ry
     estimated scf accuracy    <       0.00000797 Ry
     electrostatic embedding   =       0.12837302 Ry
     correction to one-el term =      -2.15685624 Ry

     iteration #  7     ecut=    30.00 Ry     beta= 0.70
     Davidson diagonalization with overlap
     ethr =  9.97E-08,  avg # of iterations =  4.0

     negative rho (up, down):  1.905E-06 0.000E+00

     add environment contribution to local potential

     total cpu time spent up to now is       39.4 secs

     total energy              =     -33.02324138 Ry
     estimated scf accuracy    <       0.00000039 Ry
     electrostatic embedding   =       0.12832807 Ry
     correction to one-el term =      -2.15645437 Ry

     iteration #  8     ecut=    30.00 Ry     beta= 0.70
     Davidson diagonalization with overlap
     ethr =  4.82E-09,  avg # of iterations =  2.0

     negative rho (up, down):  1.907E-06 0.000E+00

     add environment contribution to local potential

     total cpu time spent up to now is       40.4 secs

     total energy              =     -33.02324129 Ry
     estimated scf accuracy    <       0.00000026 Ry
     electrostatic embedding   =       0.12832205 Ry
     correction to one-el term =      -2.15640068 Ry

     iteration #  9     ecut=    30.00 Ry     beta= 0.70
     Davidson diagonalization with overlap
     ethr =  3.30E-09,  avg # of iterations =  1.0

     negative rho (up, down):  1.912E-06 0.000E+00

     add environment contribution to local potential

     total cpu time spent up to now is       41.4 secs

     total energy              =     -33.02324117 Ry
     estimated scf accuracy    <       0.00000014 Ry
     electrostatic embedding   =       0.12832586 Ry
     correction to one-el term =      -2.15643434 Ry

     iteration # 10     ecut=    30.00 Ry     beta= 0.70
     Davidson diagonalization with overlap
     ethr =  1.80E-09,  avg # of iterations =  2.0

     negative rho (up, down):  1.916E-06 0.000E+00

     add environment contribution to local potential

     total cpu time spent up to now is       42.4 secs

     total energy              =     -33.02324117 Ry
     estimated scf accuracy    <          5.9E-09 Ry
     electrostatic embedding   =       0.12833072 Ry
     correction to one-el term =      -2.15647752 Ry

     iteration # 11     ecut=    30.00 Ry     beta= 0.70
     Davidson diagonalization with overlap
     ethr =  7.39E-11,  avg # of iterations =  5.0

     negative rho (up, down):  1.921E-06 0.000E+00

     the potential shift due to the Gaussian-smeared nuclei is    -0.0187 ev

     total cpu time spent up to now is       43.2 secs

     End of self-consistent calculation

          k = 0.0000 0.0000 0.0000 ( 22119 PWs)   bands (ev):

   -14.3744  -1.6761   1.9045   1.9045

     occupation numbers 
     1.0000   1.0000   1.0000   1.0000

     highest occupied level (ev):     1.9045

!    total energy              =     -33.02324120 Ry
     estimated scf accuracy    <          5.0E-10 Ry

     The total energy is the sum of the following terms:
     one-electron contribution =     -53.57948932 Ry
     hartree contribution      =      31.04895288 Ry
     xc contribution           =      -7.96028863 Ry
     ewald contribution        =      -0.50425455 Ry
     electrostatic embedding   =       0.12833259 Ry
     correction to one-el term =      -2.15649417 Ry

     WARNING: you are using the parabolic pbc correction;
              the potential shift above must be added to 
              band and Fermi energies.

     convergence has been achieved in  11 iterations
     The global environment contribution to forces
     atom    1 type  2   force =    -0.00158970    0.00000337    0.00000337
     atom    2 type  1   force =    -0.00221744    0.00000056    0.00000056


     Forces acting on atoms (cartesian axes, Ry/au):

     atom    1 type  2   force =     0.01198084    0.00000000    0.00000000
     atom    2 type  1   force =    -0.01198084    0.00000000    0.00000000
     The non-local contrib.  to forces
     atom    1 type  2   force =     1.86508120    0.00000000    0.00000000
     atom    2 type  1   force =    -0.17504276    0.00000000    0.00000000
     The ionic contribution  to forces
     atom    1 type  2   force =    -3.43988984    0.00000000    0.00000000
     atom    2 type  1   force =     3.43988984   -0.00000000   -0.00000000
     The local contribution  to forces
     atom    1 type  2   force =     1.58826853    0.00000000    0.00000000
     atom    2 type  1   force =    -3.27472904    0.00000000    0.00000000
     The core correction contribution to forces
     atom    1 type  2   force =     0.00000000    0.00000000    0.00000000
     atom    2 type  1   force =     0.00000000    0.00000000    0.00000000
     The Hubbard contrib.    to forces
     atom    1 type  2   force =     0.00000000    0.00000000    0.00000000
     atom    2 type  1   force =     0.00000000    0.00000000    0.00000000
     The SCF correction term to forces
     atom    1 type  2   force =    -0.00001221   -0.00000000   -0.00000000
     atom    2 type  1   force =    -0.00000428    0.00000000    0.00000000

     Total force =     0.016943     Total SCF correction =     0.000013
     Energy error            =      1.2E-06
     Gradient error          =      1.2E-02

     number of scf cycles    =   2
     number of bfgs steps    =   1

     energy   old            =     -33.0232423593 Ry
     energy   new            =     -33.0232412007 Ry

     CASE: energy  _new > energy  _old

     new trust radius        =       0.0060999836 bohr
     new conv_thr            =       0.0000000050 Ry


ATOMIC_POSITIONS (bohr)
O             9.9939000164       10.0000000000       10.0000000000
H            11.8460999836       10.0000000000       10.0000000000



     Writing output data file /home/mat/q-e/tempdir/ho.save/
     NEW-OLD atomic charge density approx. for the potential

     negative rho (up, down):  2.594E-06 0.000E+00

     add environment contribution to local potential

     total cpu time spent up to now is       44.8 secs

     Self-consistent Calculation

     iteration #  1     ecut=    30.00 Ry     beta= 0.70
     Davidson diagonalization with overlap
     ethr =  1.00E-06,  avg # of iterations =  3.0

     negative rho (up, down):  2.013E-06 0.000E+00

     add environment contribution to local potential

     total cpu time spent up to now is       45.9 secs

     total energy              =     -33.02325998 Ry
     estimated scf accuracy    <       0.00010641 Ry
     electrostatic embedding   =       0.12833138 Ry
     correction to one-el term =      -2.15649107 Ry

     iteration #  2     ecut=    30.00 Ry     beta= 0.70
     Davidson diagonalization with overlap
     ethr =  1.33E-06,  avg # of iterations =  5.0

     negative rho (up, down):  4.429E-06 0.000E+00

     add environment contribution to local potential

     total cpu time spent up to now is       46.9 secs

     total energy              =     -33.02324345 Ry
     estimated scf accuracy    <       0.00047468 Ry
     electrostatic embedding   =       0.12840832 Ry
     correction to one-el term =      -2.15717263 Ry

     iteration #  3     ecut=    30.00 Ry     beta= 0.70
     Davidson diagonalization with overlap
     ethr =  1.33E-06,  avg # of iterations =  3.0

     negative rho (up, down):  2.238E-06 0.000E+00

     add environment contribution to local potential

     total cpu time spent up to now is       47.9 secs

     total energy              =     -33.02331034 Ry
     estimated scf accuracy    <       0.00000424 Ry
     electrostatic embedding   =       0.12832711 Ry
     correction to one-el term =      -2.15645868 Ry

     iteration #  4     ecut=    30.00 Ry     beta= 0.70
     Davidson diagonalization with overlap
     ethr =  5.30E-08,  avg # of iterations =  6.0

     negative rho (up, down):  1.872E-06 0.000E+00

     add environment contribution to local potential

     total cpu time spent up to now is       48.9 secs

     total energy              =     -33.02331693 Ry
     estimated scf accuracy    <       0.00001383 Ry
     electrostatic embedding   =       0.12827571 Ry
     correction to one-el term =      -2.15599902 Ry

     iteration #  5     ecut=    30.00 Ry     beta= 0.70
     Davidson diagonalization with overlap
     ethr =  5.30E-08,  avg # of iterations =  1.0

     negative rho (up, down):  1.921E-06 0.000E+00

     add environment contribution to local potential

     total cpu time spent up to now is       49.9 secs

     total energy              =     -33.02331536 Ry
     estimated scf accuracy    <       0.00000591 Ry
     electrostatic embedding   =       0.12830406 Ry
     correction to one-el term =      -2.15625245 Ry

     iteration #  6     ecut=    30.00 Ry     beta= 0.70
     Davidson diagonalization with overlap
     ethr =  5.30E-08,  avg # of iterations =  2.0

     negative rho (up, down):  1.935E-06 0.000E+00

     add environment contribution to local potential

     total cpu time spent up to now is       50.9 secs

     total energy              =     -33.02331563 Ry
     estimated scf accuracy    <       0.00000056 Ry
     electrostatic embedding   =       0.12833408 Ry
     correction to one-el term =      -2.15651954 Ry

     iteration #  7     ecut=    30.00 Ry     beta= 0.70
     Davidson diagonalization with overlap
     ethr =  7.05E-09,  avg # of iterations =  4.0

     negative rho (up, down):  1.934E-06 0.000E+00

     add environment contribution to local potential

     total cpu time spent up to now is       51.9 secs

     total energy              =     -33.02331587 Ry
     estimated scf accuracy    <       0.00000004 Ry
     electrostatic embedding   =       0.12835073 Ry
     correction to one-el term =      -2.15666909 Ry

     iteration #  8     ecut=    30.00 Ry     beta= 0.70
     Davidson diagonalization with overlap
     ethr =  4.64E-10,  avg # of iterations =  2.0

     negative rho (up, down):  1.930E-06 0.000E+00

     add environment contribution to local potential

     total cpu time spent up to now is       52.9 secs

     total energy              =     -33.02331592 Ry
     estimated scf accuracy    <       0.00000005 Ry
     electrostatic embedding   =       0.12835092 Ry
     correction to one-el term =      -2.15667081 Ry

     iteration #  9     ecut=    30.00 Ry     beta= 0.70
     Davidson diagonalization with overlap
     ethr =  4.64E-10,  avg # of iterations =  2.0

     negative rho (up, down):  1.925E-06 0.000E+00

     add environment contribution to local potential

     total cpu time spent up to now is       53.9 secs

     total energy              =     -33.02331596 Ry
     estimated scf accuracy    <       0.00000002 Ry
     electrostatic embedding   =       0.12834759 Ry
     correction to one-el term =      -2.15664122 Ry

     iteration # 10     ecut=    30.00 Ry     beta= 0.70
     Davidson diagonalization with overlap
     ethr =  2.31E-10,  avg # of iterations =  2.0

     negative rho (up, down):  1.923E-06 0.000E+00

     the potential shift due to the Gaussian-smeared nuclei is    -0.0187 ev

     total cpu time spent up to now is       54.7 secs

     End of self-consistent calculation

          k = 0.0000 0.0000 0.0000 ( 22119 PWs)   bands (ev):

   -14.4129  -1.6799   1.9047   1.9047

     occupation numbers 
     1.0000   1.0000   1.0000   1.0000

     highest occupied level (ev):     1.9047

!    total energy              =     -33.02331596 Ry
     estimated scf accuracy    <          5.1E-11 Ry

     The total energy is the sum of the following terms:
     one-electron contribution =     -53.65426180 Ry
     hartree contribution      =      31.08740102 Ry
     xc contribution           =      -7.96650492 Ry
     ewald contribution        =      -0.46168162 Ry
     electrostatic embedding   =       0.12834442 Ry
     correction to one-el term =      -2.15661305 Ry

     WARNING: you are using the parabolic pbc correction;
              the potential shift above must be added to 
              band and Fermi energies.

     convergence has been achieved in  10 iterations
     The global environment contribution to forces
     atom    1 type  2   force =    -0.00161405    0.00000335    0.00000335
     atom    2 type  1   force =    -0.00220863    0.00000056    0.00000056


     Forces acting on atoms (cartesian axes, Ry/au):

     atom    1 type  2   force =     0.00010836    0.00000000    0.00000000
     atom    2 type  1   force =    -0.00010836    0.00000000    0.00000000
     The non-local contrib.  to forces
     atom    1 type  2   force =     1.86997063    0.00000000    0.00000000
     atom    2 type  1   force =    -0.17895799    0.00000000    0.00000000
     The ionic contribution  to forces
     atom    1 type  2   force =    -3.48595007   -0.00000000   -0.00000000
     atom    2 type  1   force =     3.48595007   -0.00000000    0.00000000
     The local contribution  to forces
     atom    1 type  2   force =     1.61754797    0.00000000    0.00000000
     atom    2 type  1   force =    -3.30503970   -0.00000000    0.00000000
     The core correction contribution to forces
     atom    1 type  2   force =     0.00000000    0.00000000    0.00000000
     atom    2 type  1   force =     0.00000000    0.00000000    0.00000000
     The Hubbard contrib.    to forces
     atom    1 type  2   force =     0.00000000    0.00000000    0.00000000
     atom    2 type  1   force =     0.00000000    0.00000000    0.00000000
     The SCF correction term to forces
     atom    1 type  2   force =     0.00000649    0.00000000    0.00000000
     atom    2 type  1   force =     0.00000050   -0.00000000   -0.00000000

     Total force =     0.000153     Total SCF correction =     0.000007
     Energy error            =      7.4E-05
     Gradient error          =      1.1E-04

     bfgs converged in   3 scf cycles and   1 bfgs steps
     (criteria: energy <  1.0E-04 Ry, force <  5.0E-03 Ry/Bohr)

     End of BFGS Geometry Optimization

     Final energy   =     -33.0233159551 Ry

     File /home/mat/q-e/tempdir/ho.bfgs deleted, as requested
Begin final coordinates

ATOMIC_POSITIONS (bohr)
O             9.9939000164       10.0000000000       10.0000000000
H            11.8460999836       10.0000000000       10.0000000000
End final coordinates



     Writing output data file /home/mat/q-e/tempdir/ho.save/

     init_run     :      1.32s CPU      1.46s WALL (       1 calls)
     electrons    :     43.42s CPU     50.03s WALL (       3 calls)
     update_pot   :      0.99s CPU      1.04s WALL (       2 calls)
     forces       :      1.27s CPU      1.41s WALL (       3 calls)

     Called by init_run:
     wfcinit      :      0.02s CPU      0.02s WALL (       1 calls)
     wfcinit:atom :      0.00s CPU      0.00s WALL (       1 calls)
     wfcinit:wfcr :      0.02s CPU      0.02s WALL (       1 calls)
     potinit      :      0.45s CPU      0.52s WALL (       1 calls)
     hinit0       :      0.37s CPU      0.39s WALL (       1 calls)

     Called by electrons:
     c_bands      :      2.81s CPU      2.89s WALL (      50 calls)
     sum_band     :      8.79s CPU     11.06s WALL (      50 calls)
     v_of_rho     :     15.16s CPU     17.09s WALL (      53 calls)
     v_h          :      1.29s CPU      1.48s WALL (      53 calls)
     v_xc         :     13.86s CPU     15.61s WALL (      53 calls)
     newd         :      6.32s CPU      8.45s WALL (      53 calls)
     mix_rho      :      2.64s CPU      2.70s WALL (      50 calls)

     Called by c_bands:
     init_us_2    :      0.12s CPU      0.12s WALL (     101 calls)
     cegterg      :      2.70s CPU      2.78s WALL (      50 calls)

     Called by sum_band:
     sum_band:wei :      0.00s CPU      0.00s WALL (      50 calls)
     sum_band:loo :      0.47s CPU      0.48s WALL (      50 calls)
     sum_band:buf :      0.00s CPU      0.00s WALL (      50 calls)
     sum_band:ini :      0.06s CPU      0.06s WALL (      50 calls)
     sum_band:cal :      0.03s CPU      0.03s WALL (      50 calls)
     sum_band:bec :      0.00s CPU      0.00s WALL (      50 calls)
     addusdens    :      6.29s CPU      8.42s WALL (      50 calls)
     addusd:skk   :      0.07s CPU      0.07s WALL (     100 calls)
     addusd:dgemm :      1.86s CPU      3.33s WALL (     100 calls)
     addusd:qvan2 :      2.87s CPU      2.88s WALL (     100 calls)

     Called by *egterg:
     cdiaghg      :      0.01s CPU      0.01s WALL (     198 calls)
     cegterg:over :      0.07s CPU      0.07s WALL (     150 calls)
     cegterg:upda :      0.04s CPU      0.04s WALL (     150 calls)
     cegterg:last :      0.10s CPU      0.10s WALL (     133 calls)
     h_psi        :      2.38s CPU      2.45s WALL (     201 calls)
     s_psi        :      0.06s CPU      0.06s WALL (     201 calls)
     g_psi        :      0.01s CPU      0.01s WALL (     150 calls)

     Called by h_psi:
     h_psi:calbec :      0.08s CPU      0.08s WALL (     201 calls)
     vloc_psi     :      2.23s CPU      2.30s WALL (     201 calls)
     add_vuspsi   :      0.06s CPU      0.06s WALL (     201 calls)

     General routines
     calbec       :      0.11s CPU      0.11s WALL (     263 calls)
     fft          :     15.16s CPU     16.05s WALL (     691 calls)
     ffts         :      0.34s CPU      0.34s WALL (     103 calls)
     fftw         :      2.37s CPU      2.44s WALL (    1514 calls)
     interpolate  :      1.35s CPU      1.40s WALL (      53 calls)

     Parallel routines
     fft_scatt_xy :      1.59s CPU      1.62s WALL (    2308 calls)
     fft_scatt_yz :      5.10s CPU      5.62s WALL (    2308 calls)

     Environ routines

     PWSCF        :     48.20s CPU     55.27s WALL


   This run was terminated on:  10:54:30   3Feb2022            

=------------------------------------------------------------------------------=
   JOB DONE.
=------------------------------------------------------------------------------=
