
     Program PWSCF v.6.7MaX starts on  5Mar2021 at 10:49: 4 

     This program is part of the open-source Quantum ESPRESSO suite
     for quantum simulation of materials; please cite
         "P. Giannozzi et al., J. Phys.:Condens. Matter 21 395502 (2009);
         "P. Giannozzi et al., J. Phys.:Condens. Matter 29 465901 (2017);
          URL http://www.quantum-espresso.org", 
     in publications or presentations arising from this work. More details at
     http://www.quantum-espresso.org/quote

     Parallel version (MPI), running on     1 processors

     MPI processes distributed on     1 nodes
     Waiting for input...
     Reading input from standard input

     Current dimensions of program PWSCF are:
     Max number of different atomic species (ntypx) = 10
     Max number of k-points (npk) =  40000
     Max angular momentum in pseudopotentials (lmaxx) =  3
     file H.pbe-rrkjus.UPF: wavefunction(s)  1S renormalized
     file O.pbe-rrkjus.UPF: wavefunction(s)  2S renormalized

     gamma-point specific algorithms are used

     Subspace diagonalization in iterative solution of the eigenvalue problem:
     a serial algorithm will be used


     G-vector sticks info
     --------------------
     sticks:   dense  smooth     PW     G-vecs:    dense   smooth      PW
     Sum        2385     949    241                87655    22119    2777



     bravais-lattice index     =            1
     lattice parameter (alat)  =      10.0000  a.u.
     unit-cell volume          =    1000.0000 (a.u.)^3
     number of atoms/cell      =            3
     number of atomic types    =            2
     number of electrons       =         8.00
     number of Kohn-Sham states=            4
     kinetic-energy cutoff     =      30.0000  Ry
     charge density cutoff     =     300.0000  Ry
     scf convergence threshold =      1.0E-08
     mixing beta               =       0.3000
     number of iterations used =            8  plain     mixing
     Exchange-correlation= SLA  PW   PBE  PBE
                           (   1   4   3   4   0   0   0)


     Environ Module
     ==============

     Plese cite
         O. Andreussi, I. Dabo and N. Marzari, J. Chem. Phys. 136, 064102 (2012)         
     in publications or presentations arising from this work.

     compensation onset threshold      =               0.1000E+03 
     switching function adopted        =                     SCCS 
     density limit for vacuum region   =               0.5000E-02 
     density limit for bulk solvent    =               0.1000E-03 

     Electrostatic Setup
     -------------------
     electrostatic problem to solve    = generalized              
     numerical solver adopted          = cg                       
     type of auxiliary density adopted = none                     
     type of core tool for poisson     = fft                      



     celldm(1)=  10.000000  celldm(2)=   0.000000  celldm(3)=   0.000000
     celldm(4)=   0.000000  celldm(5)=   0.000000  celldm(6)=   0.000000

     crystal axes: (cart. coord. in units of alat)
               a(1) = (   1.000000   0.000000   0.000000 )  
               a(2) = (   0.000000   1.000000   0.000000 )  
               a(3) = (   0.000000   0.000000   1.000000 )  

     reciprocal axes: (cart. coord. in units 2 pi/alat)
               b(1) = (  1.000000  0.000000  0.000000 )  
               b(2) = (  0.000000  1.000000  0.000000 )  
               b(3) = (  0.000000  0.000000  1.000000 )  


     PseudoPot. # 1 for H  read from file:
     ../../../pseudo/H.pbe-rrkjus.UPF
     MD5 check sum: 2d52a7f45632fd764c17cc6affed14c8
     Pseudo is Ultrasoft, Zval =  1.0
     Generated by new atomic code, or converted to UPF format
     Using radial grid of 1061 points,  2 beta functions with: 
                l(1) =   0
                l(2) =   0
     Q(r) pseudized with 0 coefficients 


     PseudoPot. # 2 for O  read from file:
     ../../../pseudo/O.pbe-rrkjus.UPF
     MD5 check sum: fadcf19ee70a498d3030e2e79cf929a4
     Pseudo is Ultrasoft, Zval =  6.0
     Generated by new atomic code, or converted to UPF format
     Using radial grid of 1269 points,  4 beta functions with: 
                l(1) =   0
                l(2) =   0
                l(3) =   1
                l(4) =   1
     Q(r) pseudized with 0 coefficients 


     atomic species   valence    mass     pseudopotential
        H              1.00     1.00000     H ( 1.00)
        O              6.00    16.00000     O ( 1.00)

     No symmetry found



   Cartesian axes

     site n.     atom                  positions (alat units)
         1           O   tau(   1) = (   1.1790000   1.2050000   1.1500000  )
         2           H   tau(   2) = (   1.3450000   1.1220000   1.1500000  )
         3           H   tau(   3) = (   1.0560000   1.0660000   1.1500000  )

     number of k points=     1
                       cart. coord. in units 2pi/alat
        k(    1) = (   0.0000000   0.0000000   0.0000000), wk =   2.0000000

     Dense  grid:    43828 G-vectors     FFT dimensions: (  60,  60,  60)

     Smooth grid:    11060 G-vectors     FFT dimensions: (  36,  36,  36)

     Estimated max dynamical RAM per process >      67.04 MB

     Initial potential from superposition of free atoms

     starting charge    7.80759, renormalised to    8.00000
     Starting wfcs are    6 randomized atomic wfcs

     total cpu time spent up to now is        6.7 secs

     Self-consistent Calculation

     iteration #  1     ecut=    30.00 Ry     beta= 0.30
     Davidson diagonalization with overlap
     ethr =  1.00E-02,  avg # of iterations =  2.0

     add environment contribution to local potential
     polarization accuracy = 8.5E-14, # of iterations =  46

     total cpu time spent up to now is       37.4 secs

     total energy              =     -34.27697489 Ry
     estimated scf accuracy    <       0.63666317 Ry
     electrostatic embedding   =       0.00000000 Ry
     correction to one-el term =      -0.00000000 Ry

     iteration #  2     ecut=    30.00 Ry     beta= 0.30
     Davidson diagonalization with overlap
     ethr =  7.96E-03,  avg # of iterations =  1.0

     add environment contribution to local potential
     polarization accuracy = 7.4E-14, # of iterations =  40

     total cpu time spent up to now is       63.9 secs

     total energy              =     -34.27017550 Ry
     estimated scf accuracy    <       0.15272288 Ry
     electrostatic embedding   =      -0.03311592 Ry
     correction to one-el term =       0.14675185 Ry

     iteration #  3     ecut=    30.00 Ry     beta= 0.30
     Davidson diagonalization with overlap
     ethr =  1.91E-03,  avg # of iterations =  2.0

     add environment contribution to local potential
     polarization accuracy = 9.4E-14, # of iterations =  94

     total cpu time spent up to now is      118.2 secs

     total energy              =     -34.28292767 Ry
     estimated scf accuracy    <       0.03404789 Ry
     electrostatic embedding   =      -0.03127406 Ry
     correction to one-el term =       0.15928421 Ry

     iteration #  4     ecut=    30.00 Ry     beta= 0.30
     Davidson diagonalization with overlap
     ethr =  4.26E-04,  avg # of iterations =  2.0

     add environment contribution to local potential
     polarization accuracy = 3.9E-14, # of iterations =  66

     total cpu time spent up to now is      158.1 secs

     total energy              =     -34.28875324 Ry
     estimated scf accuracy    <       0.01129078 Ry
     electrostatic embedding   =      -0.02897098 Ry
     correction to one-el term =       0.25044771 Ry

     iteration #  5     ecut=    30.00 Ry     beta= 0.30
     Davidson diagonalization with overlap
     ethr =  1.41E-04,  avg # of iterations =  2.0

     add environment contribution to local potential
     polarization accuracy = 5.1E-14, # of iterations =  66

     total cpu time spent up to now is      198.1 secs

     total energy              =     -34.28809756 Ry
     estimated scf accuracy    <       0.00093956 Ry
     electrostatic embedding   =      -0.02944934 Ry
     correction to one-el term =       0.26645183 Ry

     iteration #  6     ecut=    30.00 Ry     beta= 0.30
     Davidson diagonalization with overlap
     ethr =  1.17E-05,  avg # of iterations =  2.0

     negative rho (up, down):  3.207E-05 0.000E+00

     add environment contribution to local potential
     polarization accuracy = 7.3E-14, # of iterations =  62

     total cpu time spent up to now is      235.6 secs

     total energy              =     -34.28857613 Ry
     estimated scf accuracy    <       0.00012843 Ry
     electrostatic embedding   =      -0.03115424 Ry
     correction to one-el term =       0.26725154 Ry

     iteration #  7     ecut=    30.00 Ry     beta= 0.30
     Davidson diagonalization with overlap
     ethr =  1.61E-06,  avg # of iterations =  2.0

     negative rho (up, down):  3.837E-05 0.000E+00

     add environment contribution to local potential
     polarization accuracy = 9.5E-14, # of iterations =  62

     total cpu time spent up to now is      273.8 secs

     total energy              =     -34.28861540 Ry
     estimated scf accuracy    <       0.00000456 Ry
     electrostatic embedding   =      -0.03183617 Ry
     correction to one-el term =       0.27751952 Ry

     iteration #  8     ecut=    30.00 Ry     beta= 0.30
     Davidson diagonalization with overlap
     ethr =  5.70E-08,  avg # of iterations =  2.0

     negative rho (up, down):  1.606E-05 0.000E+00

     add environment contribution to local potential
     polarization accuracy = 6.4E-14, # of iterations =  63

     total cpu time spent up to now is      312.2 secs

     total energy              =     -34.28861743 Ry
     estimated scf accuracy    <       0.00000371 Ry
     electrostatic embedding   =      -0.03200513 Ry
     correction to one-el term =       0.27713896 Ry

     iteration #  9     ecut=    30.00 Ry     beta= 0.30
     Davidson diagonalization with overlap
     ethr =  4.63E-08,  avg # of iterations =  2.0

     negative rho (up, down):  7.497E-06 0.000E+00

     add environment contribution to local potential
     polarization accuracy = 9.2E-14, # of iterations =  63

     total cpu time spent up to now is      350.5 secs

     total energy              =     -34.28861992 Ry
     estimated scf accuracy    <       0.00000037 Ry
     electrostatic embedding   =      -0.03213815 Ry
     correction to one-el term =       0.27649603 Ry

     iteration # 10     ecut=    30.00 Ry     beta= 0.30
     Davidson diagonalization with overlap
     ethr =  4.61E-09,  avg # of iterations =  2.0

     negative rho (up, down):  2.789E-06 0.000E+00

     add environment contribution to local potential
     polarization accuracy = 7.9E-14, # of iterations =  63

     total cpu time spent up to now is      389.1 secs

     total energy              =     -34.28862059 Ry
     estimated scf accuracy    <       0.00000017 Ry
     electrostatic embedding   =      -0.03220994 Ry
     correction to one-el term =       0.27609710 Ry

     iteration # 11     ecut=    30.00 Ry     beta= 0.30
     Davidson diagonalization with overlap
     ethr =  2.16E-09,  avg # of iterations =  2.0

     negative rho (up, down):  1.213E-06 0.000E+00

     the potential shift due to the Gaussian-smeared nuclei is    -0.0063 ev

     total cpu time spent up to now is      391.9 secs

     End of self-consistent calculation

          k = 0.0000 0.0000 0.0000 (  1389 PWs)   bands (ev):

   -24.3898 -12.1620  -8.5890  -6.6122

     highest occupied level (ev):    -6.6122

!    total energy              =     -34.28862097 Ry
     estimated scf accuracy    <          5.0E-09 Ry

     The total energy is the sum of the following terms:
     one-electron contribution =     -46.86451202 Ry
     hartree contribution      =      25.08742654 Ry
     xc contribution           =      -8.41980033 Ry
     ewald contribution        =      -4.33512441 Ry
     electrostatic embedding   =      -0.03228397 Ry
     correction to one-el term =       0.27567322 Ry

     convergence has been achieved in  11 iterations
 forces lc
       1    0.0001   -0.0000    0.0000
       2    0.0000    0.0000    0.0000
       3    0.0000    0.0000    0.0000

     Forces acting on atoms (cartesian axes, Ry/au):

     atom    1 type  2   force =    -0.01685737    0.10241108    0.00000301
     atom    2 type  1   force =    -0.03730431   -0.05858875   -0.00000150
     atom    3 type  1   force =     0.05416168   -0.04382233   -0.00000151

     Total force =     0.143005     Total SCF correction =     0.000051

     Writing output data file ./tmp/pwscf.save/

     init_run     :      5.93s CPU      6.67s WALL (       1 calls)
     electrons    :    368.70s CPU    385.20s WALL (       1 calls)
     forces       :      0.73s CPU      0.80s WALL (       1 calls)

     Called by init_run:
     wfcinit      :      0.00s CPU      0.01s WALL (       1 calls)
     potinit      :      2.48s CPU      2.74s WALL (       1 calls)
     hinit0       :      2.91s CPU      3.08s WALL (       1 calls)

     Called by electrons:
     c_bands      :      0.07s CPU      0.21s WALL (      11 calls)
     sum_band     :      0.45s CPU      0.32s WALL (      11 calls)
     v_of_rho     :      0.80s CPU      0.94s WALL (      12 calls)
     newd         :      0.22s CPU      0.32s WALL (      12 calls)
     mix_rho      :      0.07s CPU      0.09s WALL (      11 calls)

     Called by c_bands:
     init_us_2    :      0.00s CPU      0.00s WALL (      23 calls)
     regterg      :      0.07s CPU      0.21s WALL (      11 calls)

     Called by *egterg:
     rdiaghg      :      0.00s CPU      0.00s WALL (      32 calls)
     h_psi        :      0.06s CPU      0.18s WALL (      33 calls)
     s_psi        :      0.00s CPU      0.01s WALL (      33 calls)
     g_psi        :      0.00s CPU      0.00s WALL (      21 calls)

     Called by h_psi:
     h_psi:calbec :      0.00s CPU      0.00s WALL (      33 calls)
     vloc_psi     :      0.05s CPU      0.05s WALL (      33 calls)
     add_vuspsi   :      0.00s CPU      0.12s WALL (      33 calls)

     General routines
     calbec       :      0.00s CPU      0.00s WALL (      48 calls)
     fft          :    232.81s CPU    239.88s WALL (    1577 calls)
     ffts         :      0.01s CPU      0.01s WALL (      23 calls)
     fftw         :      0.05s CPU      0.05s WALL (     150 calls)
     interpolate  :      0.05s CPU      0.09s WALL (      12 calls)

     Parallel routines
     fft_scatt_xy :     23.86s CPU     23.88s WALL (    1443 calls)
     fft_scatt_yz :     32.84s CPU     32.88s WALL (    1443 calls)

     Environ routines
     calc_eelect  :      0.07s CPU      0.07s WALL (      22 calls)
     calc_velect  :    322.21s CPU    333.94s WALL (      20 calls)
     dielectric   :      9.01s CPU     10.27s WALL (      13 calls)
     calc_felect  :      0.67s CPU      0.74s WALL (       1 calls)

     PWSCF        :   6m15.40s CPU   6m32.87s WALL


   This run was terminated on:  10:55:37   5Mar2021            

=------------------------------------------------------------------------------=
   JOB DONE.
=------------------------------------------------------------------------------=
