
     Program PWSCF v.6.7MaX starts on  5Mar2021 at 10:55:37 

     This program is part of the open-source Quantum ESPRESSO suite
     for quantum simulation of materials; please cite
         "P. Giannozzi et al., J. Phys.:Condens. Matter 21 395502 (2009);
         "P. Giannozzi et al., J. Phys.:Condens. Matter 29 465901 (2017);
          URL http://www.quantum-espresso.org", 
     in publications or presentations arising from this work. More details at
     http://www.quantum-espresso.org/quote

     Parallel version (MPI), running on     1 processors

     MPI processes distributed on     1 nodes
     Waiting for input...
     Reading input from standard input

     Current dimensions of program PWSCF are:
     Max number of different atomic species (ntypx) = 10
     Max number of k-points (npk) =  40000
     Max angular momentum in pseudopotentials (lmaxx) =  3
     file H.pbe-rrkjus.UPF: wavefunction(s)  1S renormalized
     file O.pbe-rrkjus.UPF: wavefunction(s)  2S renormalized

     gamma-point specific algorithms are used

     Subspace diagonalization in iterative solution of the eigenvalue problem:
     a serial algorithm will be used


     G-vector sticks info
     --------------------
     sticks:   dense  smooth     PW     G-vecs:    dense   smooth      PW
     Sum        2385     949    241                87655    22119    2777



     bravais-lattice index     =            1
     lattice parameter (alat)  =      10.0000  a.u.
     unit-cell volume          =    1000.0000 (a.u.)^3
     number of atoms/cell      =            3
     number of atomic types    =            2
     number of electrons       =         8.00
     number of Kohn-Sham states=            4
     kinetic-energy cutoff     =      30.0000  Ry
     charge density cutoff     =     300.0000  Ry
     scf convergence threshold =      1.0E-08
     mixing beta               =       0.3000
     number of iterations used =            8  plain     mixing
     Exchange-correlation= SLA  PW   PBE  PBE
                           (   1   4   3   4   0   0   0)


     Environ Module
     ==============

     Plese cite
         O. Andreussi, I. Dabo and N. Marzari, J. Chem. Phys. 136, 064102 (2012)         
     in publications or presentations arising from this work.

     compensation onset threshold      =               0.1000E+03 
     switching function adopted        =                     SCCS 
     density limit for vacuum region   =               0.5000E-02 
     density limit for bulk solvent    =               0.1000E-03 

     Electrostatic Setup
     -------------------
     electrostatic problem to solve    = generalized              
     numerical solver adopted          = cg                       
     type of auxiliary density adopted = none                     
     type of core tool for poisson     = fft                      



     celldm(1)=  10.000000  celldm(2)=   0.000000  celldm(3)=   0.000000
     celldm(4)=   0.000000  celldm(5)=   0.000000  celldm(6)=   0.000000

     crystal axes: (cart. coord. in units of alat)
               a(1) = (   1.000000   0.000000   0.000000 )  
               a(2) = (   0.000000   1.000000   0.000000 )  
               a(3) = (   0.000000   0.000000   1.000000 )  

     reciprocal axes: (cart. coord. in units 2 pi/alat)
               b(1) = (  1.000000  0.000000  0.000000 )  
               b(2) = (  0.000000  1.000000  0.000000 )  
               b(3) = (  0.000000  0.000000  1.000000 )  


     PseudoPot. # 1 for H  read from file:
     ../../../pseudo/H.pbe-rrkjus.UPF
     MD5 check sum: 2d52a7f45632fd764c17cc6affed14c8
     Pseudo is Ultrasoft, Zval =  1.0
     Generated by new atomic code, or converted to UPF format
     Using radial grid of 1061 points,  2 beta functions with: 
                l(1) =   0
                l(2) =   0
     Q(r) pseudized with 0 coefficients 


     PseudoPot. # 2 for O  read from file:
     ../../../pseudo/O.pbe-rrkjus.UPF
     MD5 check sum: fadcf19ee70a498d3030e2e79cf929a4
     Pseudo is Ultrasoft, Zval =  6.0
     Generated by new atomic code, or converted to UPF format
     Using radial grid of 1269 points,  4 beta functions with: 
                l(1) =   0
                l(2) =   0
                l(3) =   1
                l(4) =   1
     Q(r) pseudized with 0 coefficients 


     atomic species   valence    mass     pseudopotential
        H              1.00     1.00000     H ( 1.00)
        O              6.00    16.00000     O ( 1.00)

     No symmetry found



   Cartesian axes

     site n.     atom                  positions (alat units)
         1           O   tau(   1) = (   1.1790000   1.2050000   1.1500000  )
         2           H   tau(   2) = (   1.3450000   1.1220000   1.1500000  )
         3           H   tau(   3) = (   1.0560000   1.0660000   1.1500000  )

     number of k points=     1
                       cart. coord. in units 2pi/alat
        k(    1) = (   0.0000000   0.0000000   0.0000000), wk =   2.0000000

     Dense  grid:    43828 G-vectors     FFT dimensions: (  60,  60,  60)

     Smooth grid:    11060 G-vectors     FFT dimensions: (  36,  36,  36)

     Estimated max dynamical RAM per process >      67.04 MB

     Initial potential from superposition of free atoms

     starting charge    7.80759, renormalised to    8.00000
     Starting wfcs are    6 randomized atomic wfcs

     total cpu time spent up to now is        6.6 secs

     Self-consistent Calculation

     iteration #  1     ecut=    30.00 Ry     beta= 0.30
     Davidson diagonalization with overlap
     ethr =  1.00E-02,  avg # of iterations =  2.0

     add environment contribution to local potential
     polarization accuracy = 5.9E-16, # of iterations =  92

     total cpu time spent up to now is       57.4 secs

     total energy              =     -34.27697489 Ry
     estimated scf accuracy    <       0.63666317 Ry
     electrostatic embedding   =       0.00000000 Ry
     correction to one-el term =      -0.00000000 Ry

     iteration #  2     ecut=    30.00 Ry     beta= 0.30
     Davidson diagonalization with overlap
     ethr =  7.96E-03,  avg # of iterations =  1.0

     add environment contribution to local potential
     polarization accuracy = 4.1E-16, # of iterations =  80

     total cpu time spent up to now is      102.6 secs

     total energy              =     -34.26282062 Ry
     estimated scf accuracy    <       0.14443641 Ry
     electrostatic embedding   =      -0.00281652 Ry
     correction to one-el term =       0.63671640 Ry

     iteration #  3     ecut=    30.00 Ry     beta= 0.30
     Davidson diagonalization with overlap
     ethr =  1.81E-03,  avg # of iterations =  2.0

     add environment contribution to local potential
     polarization accuracy = 5.7E-16, # of iterations =  84

     total cpu time spent up to now is      150.1 secs

     total energy              =     -34.26042997 Ry
     estimated scf accuracy    <       0.03863168 Ry
     electrostatic embedding   =      -0.00179861 Ry
     correction to one-el term =       0.49508630 Ry

     iteration #  4     ecut=    30.00 Ry     beta= 0.30
     Davidson diagonalization with overlap
     ethr =  4.83E-04,  avg # of iterations =  2.0

     add environment contribution to local potential
     polarization accuracy = 7.2E-16, # of iterations =  84

     total cpu time spent up to now is      197.6 secs

     total energy              =     -34.26460071 Ry
     estimated scf accuracy    <       0.00457510 Ry
     electrostatic embedding   =      -0.00180013 Ry
     correction to one-el term =       0.48391230 Ry

     iteration #  5     ecut=    30.00 Ry     beta= 0.30
     Davidson diagonalization with overlap
     ethr =  5.72E-05,  avg # of iterations =  2.0

     add environment contribution to local potential
     polarization accuracy = 3.7E-16, # of iterations =  85

     total cpu time spent up to now is      245.5 secs

     total energy              =     -34.26469422 Ry
     estimated scf accuracy    <       0.00061715 Ry
     electrostatic embedding   =      -0.00205067 Ry
     correction to one-el term =       0.47070589 Ry

     iteration #  6     ecut=    30.00 Ry     beta= 0.30
     Davidson diagonalization with overlap
     ethr =  7.71E-06,  avg # of iterations =  2.0

     negative rho (up, down):  4.428E-06 0.000E+00

     add environment contribution to local potential
     polarization accuracy = 4.1E-16, # of iterations =  85

     total cpu time spent up to now is      293.5 secs

     total energy              =     -34.26493222 Ry
     estimated scf accuracy    <       0.00081158 Ry
     electrostatic embedding   =      -0.00225339 Ry
     correction to one-el term =       0.48127400 Ry

     iteration #  7     ecut=    30.00 Ry     beta= 0.30
     Davidson diagonalization with overlap
     ethr =  7.71E-06,  avg # of iterations =  2.0

     negative rho (up, down):  1.944E-05 0.000E+00

     add environment contribution to local potential
     polarization accuracy = 4.2E-16, # of iterations =  85

     total cpu time spent up to now is      341.4 secs

     total energy              =     -34.26504422 Ry
     estimated scf accuracy    <       0.00001694 Ry
     electrostatic embedding   =      -0.00235153 Ry
     correction to one-el term =       0.47880913 Ry

     iteration #  8     ecut=    30.00 Ry     beta= 0.30
     Davidson diagonalization with overlap
     ethr =  2.12E-07,  avg # of iterations =  1.0

     negative rho (up, down):  1.265E-05 0.000E+00

     add environment contribution to local potential
     polarization accuracy = 4.2E-16, # of iterations =  85

     total cpu time spent up to now is      389.1 secs

     total energy              =     -34.26504478 Ry
     estimated scf accuracy    <       0.00000471 Ry
     electrostatic embedding   =      -0.00238892 Ry
     correction to one-el term =       0.48058829 Ry

     iteration #  9     ecut=    30.00 Ry     beta= 0.30
     Davidson diagonalization with overlap
     ethr =  5.88E-08,  avg # of iterations =  2.0

     negative rho (up, down):  5.567E-06 0.000E+00

     add environment contribution to local potential
     polarization accuracy = 6.3E-16, # of iterations =  84

     total cpu time spent up to now is      436.3 secs

     total energy              =     -34.26504605 Ry
     estimated scf accuracy    <       0.00000011 Ry
     electrostatic embedding   =      -0.00239738 Ry
     correction to one-el term =       0.48104833 Ry

     iteration # 10     ecut=    30.00 Ry     beta= 0.30
     Davidson diagonalization with overlap
     ethr =  1.35E-09,  avg # of iterations =  2.0

     negative rho (up, down):  3.498E-06 0.000E+00

     add environment contribution to local potential
     polarization accuracy = 8.6E-16, # of iterations =  84

     total cpu time spent up to now is      483.6 secs

     total energy              =     -34.26504767 Ry
     estimated scf accuracy    <       0.00000019 Ry
     electrostatic embedding   =      -0.00239817 Ry
     correction to one-el term =       0.48130427 Ry

     iteration # 11     ecut=    30.00 Ry     beta= 0.30
     Davidson diagonalization with overlap
     ethr =  1.35E-09,  avg # of iterations =  2.0

     negative rho (up, down):  1.389E-06 0.000E+00

     the potential shift due to the Gaussian-smeared nuclei is    -0.0063 ev

     total cpu time spent up to now is      486.4 secs

     End of self-consistent calculation

          k = 0.0000 0.0000 0.0000 (  1389 PWs)   bands (ev):

   -25.0323 -12.8988  -9.0646  -7.0629

     highest occupied level (ev):    -7.0629

!    total energy              =     -34.26504801 Ry
     estimated scf accuracy    <          2.6E-09 Ry

     The total energy is the sum of the following terms:
     one-electron contribution =     -46.96046606 Ry
     hartree contribution      =      24.95561592 Ry
     xc contribution           =      -8.40402559 Ry
     ewald contribution        =      -4.33512441 Ry
     electrostatic embedding   =      -0.00239971 Ry
     correction to one-el term =       0.48135185 Ry

     convergence has been achieved in  11 iterations
 forces lc
       1   -0.0000   -0.0000   -0.0000
       2    0.0000   -0.0000    0.0000
       3    0.0000   -0.0000   -0.0000

     Forces acting on atoms (cartesian axes, Ry/au):

     atom    1 type  2   force =     0.00651037   -0.01933598   -0.03440897
     atom    2 type  1   force =    -0.02317524    0.00712951    0.01720194
     atom    3 type  1   force =     0.01666487    0.01220646    0.01720703

     Total force =     0.056629     Total SCF correction =     0.000069

     Writing output data file ./tmp/pwscf.save/

     init_run     :      5.78s CPU      6.53s WALL (       1 calls)
     electrons    :    457.46s CPU    479.85s WALL (       1 calls)
     forces       :      0.71s CPU      0.79s WALL (       1 calls)

     Called by init_run:
     wfcinit      :      0.00s CPU      0.00s WALL (       1 calls)
     potinit      :      2.44s CPU      2.69s WALL (       1 calls)
     hinit0       :      2.79s CPU      3.04s WALL (       1 calls)

     Called by electrons:
     c_bands      :      0.07s CPU      0.21s WALL (      11 calls)
     sum_band     :      0.43s CPU      0.30s WALL (      11 calls)
     v_of_rho     :      0.82s CPU      0.95s WALL (      12 calls)
     newd         :      0.22s CPU      0.32s WALL (      12 calls)
     mix_rho      :      0.07s CPU      0.10s WALL (      11 calls)

     Called by c_bands:
     init_us_2    :      0.00s CPU      0.01s WALL (      23 calls)
     regterg      :      0.07s CPU      0.20s WALL (      11 calls)

     Called by *egterg:
     rdiaghg      :      0.00s CPU      0.00s WALL (      31 calls)
     h_psi        :      0.06s CPU      0.17s WALL (      32 calls)
     s_psi        :      0.00s CPU      0.01s WALL (      32 calls)
     g_psi        :      0.00s CPU      0.00s WALL (      20 calls)

     Called by h_psi:
     h_psi:calbec :      0.00s CPU      0.00s WALL (      32 calls)
     vloc_psi     :      0.05s CPU      0.05s WALL (      32 calls)
     add_vuspsi   :      0.00s CPU      0.12s WALL (      32 calls)

     General routines
     calbec       :      0.00s CPU      0.00s WALL (      47 calls)
     fft          :    297.96s CPU    307.71s WALL (    2023 calls)
     ffts         :      0.01s CPU      0.01s WALL (      23 calls)
     fftw         :      0.05s CPU      0.05s WALL (     148 calls)
     interpolate  :      0.05s CPU      0.09s WALL (      12 calls)

     Parallel routines
     fft_scatt_xy :     31.73s CPU     31.76s WALL (    1889 calls)
     fft_scatt_yz :     42.80s CPU     42.84s WALL (    1889 calls)

     Environ routines
     calc_eelect  :      0.07s CPU      0.07s WALL (      22 calls)
     calc_velect  :    411.56s CPU    428.85s WALL (      20 calls)
     dielectric   :      8.41s CPU      9.75s WALL (      13 calls)
     calc_felect  :      0.65s CPU      0.72s WALL (       1 calls)

     PWSCF        :   7m43.99s CPU   8m 7.34s WALL


   This run was terminated on:  11: 3:44   5Mar2021            

=------------------------------------------------------------------------------=
   JOB DONE.
=------------------------------------------------------------------------------=
