
     Program PWSCF v.6.1 (svn rev. 13369) starts on 10Oct2017 at 12: 5:10 

     This program is part of the open-source Quantum ESPRESSO suite
     for quantum simulation of materials; please cite
         "P. Giannozzi et al., J. Phys.:Condens. Matter 21 395502 (2009);
          URL http://www.quantum-espresso.org", 
     in publications or presentations arising from this work. More details at
     http://www.quantum-espresso.org/quote

     Serial version
     Reading input from charged.in

     Current dimensions of program PWSCF are:
     Max number of different atomic species (ntypx) = 10
     Max number of k-points (npk) =  40000
     Max angular momentum in pseudopotentials (lmaxx) =  3
               file C.pbe-rrkjus.UPF: wavefunction(s)  2S 2P renormalized
               file O.pbe-rrkjus.UPF: wavefunction(s)  2S renormalized

     gamma-point specific algorithms are used

     G-vector sticks info
     --------------------
     sticks:   dense  smooth     PW     G-vecs:    dense   smooth      PW
     Sum        2205    1099    269               330909   116965   14571



     bravais-lattice index     =            8
     lattice parameter (alat)  =      10.6881  a.u.
     unit-cell volume          =    4181.1215 (a.u.)^3
     number of atoms/cell      =           10
     number of atomic types    =            3
     number of electrons       =        89.00
     number of Kohn-Sham states=           80
     kinetic-energy cutoff     =      35.0000  Ry
     charge density cutoff     =     280.0000  Ry
     convergence threshold     =      5.0E-02
     mixing beta               =       0.7000
     number of iterations used =            8  plain     mixing
     Exchange-correlation      = PBE ( 1  4  3  4 0 0)


     Environ Module
     ==============

     Plese cite
         O. Andreussi, I. Dabo and N. Marzari, J. Chem. Phys. 136, 064102 (2012)         
     in publications or presentations arising from this work.

     compensation onset threshold      =               0.1000E+03 
     static permittivity               =                   100.00 
     epsilon calculation mode          =               electronic 

     Electrostatic Setup
     -------------------
     electrostatic problem to solve    = generalized              
     numerical solver adopted          = cg                       
     type of auxiliary density adopted = none                     
     type of core tool for poisson     = fft                      
     type of core tool for s(r) deriv  = analytic                 



     celldm(1)=  10.688100  celldm(2)=   0.866025  celldm(3)=   3.954220
     celldm(4)=   0.000000  celldm(5)=   0.000000  celldm(6)=   0.000000

     crystal axes: (cart. coord. in units of alat)
               a(1) = (   1.000000   0.000000   0.000000 )  
               a(2) = (   0.000000   0.866025   0.000000 )  
               a(3) = (   0.000000   0.000000   3.954220 )  

     reciprocal axes: (cart. coord. in units 2 pi/alat)
               b(1) = (  1.000000  0.000000  0.000000 )  
               b(2) = (  0.000000  1.154701  0.000000 )  
               b(3) = (  0.000000  0.000000  0.252894 )  


     PseudoPot. # 1 for C  read from file:
     ../../../pseudo/C.pbe-rrkjus.UPF
     MD5 check sum: 00fb224312de0c5b6853bd333518df6f
     Pseudo is Ultrasoft, Zval =  4.0
     Generated by new atomic code, or converted to UPF format
     Using radial grid of  627 points,  4 beta functions with: 
                l(1) =   0
                l(2) =   0
                l(3) =   1
                l(4) =   1
     Q(r) pseudized with 0 coefficients 


     PseudoPot. # 2 for O  read from file:
     ../../../pseudo/O.pbe-rrkjus.UPF
     MD5 check sum: 390ba29e75625707450f3bd3f0eb6be9
     Pseudo is Ultrasoft, Zval =  6.0
     Generated by new atomic code, or converted to UPF format
     Using radial grid of 1269 points,  4 beta functions with: 
                l(1) =   0
                l(2) =   0
                l(3) =   1
                l(4) =   1
     Q(r) pseudized with 0 coefficients 


     PseudoPot. # 3 for Pt read from file:
     ../../../pseudo/Pt.pbe-n-rrkjus.UPF
     MD5 check sum: df5be8f5ed4f66d4aed38ca70ec8d507
     Pseudo is Ultrasoft + core correction, Zval = 10.0
     Generated using "atomic" code by A. Dal Corso  v.5.0.2 svn rev. 9415
     Using radial grid of 1277 points,  6 beta functions with: 
                l(1) =   0
                l(2) =   0
                l(3) =   1
                l(4) =   1
                l(5) =   2
                l(6) =   2
     Q(r) pseudized with 0 coefficients 


     atomic species   valence    mass     pseudopotential
        C              4.00     1.00000     C ( 1.00)
        O              6.00     1.00000     O ( 1.00)
        Pt            10.00     1.00000     Pt( 1.00)

     No symmetry found



   Cartesian axes

     site n.     atom                  positions (alat units)
         1           C   tau(   1) = (   0.4991611   0.4347567   1.2070461  )
         2           O   tau(   2) = (   0.4991542   0.4322212   1.4109013  )
         3           Pt  tau(   3) = (   0.7542339   0.0091745   0.8413229  )
         4           Pt  tau(   4) = (   0.2441023   0.0091745   0.8413226  )
         5           Pt  tau(   5) = (   0.0000034   0.4416918   0.8391348  )
         6           Pt  tau(   6) = (   0.4991682   0.4417635   0.8776299  )
         7           Pt  tau(   7) = (   0.0000038   0.7300598   0.4308181  )
         8           Pt  tau(   8) = (   0.4991683   0.7202168   0.4447460  )
         9           Pt  tau(   9) = (   0.2524172   0.2949237   0.4386572  )
        10           Pt  tau(  10) = (   0.7459196   0.2949237   0.4386575  )

     number of k points=     1  Marzari-Vanderbilt smearing, width (Ry)=  0.0300
                       cart. coord. in units 2pi/alat
        k(    1) = (   0.0000000   0.0000000   0.0000000), wk =   2.0000000

     Dense  grid:   165455 G-vectors     FFT dimensions: (  60,  50, 225)

     Smooth grid:    58483 G-vectors     FFT dimensions: (  45,  36, 160)

     Estimated max dynamical RAM per process >     216.67MB

     Initial potential from superposition of free atoms
     Check: negative starting charge=   -0.001782

     starting charge   89.99859, renormalised to   89.00000

     negative rho (up, down):  1.762E-03 0.000E+00
     Starting wfc are   80 randomized atomic wfcs

     total cpu time spent up to now is       23.2 secs

     Self-consistent Calculation

     iteration #  1     ecut=    35.00 Ry     beta=0.70
     Davidson diagonalization with overlap
     ethr =  1.00E-02,  avg # of iterations =  5.0

     negative rho (up, down):  1.526E-03 0.000E+00

     add environment contribution to local potential
     polarization accuracy = 5.6E-05, # of iterations =  24

     total cpu time spent up to now is       44.5 secs

     total energy              =    -622.68843633 Ry
     Harris-Foulkes estimate   =    -624.21108732 Ry
     estimated scf accuracy    <       1.86594048 Ry
     electrostatic embedding   =       0.03381190 Ry
     correction to one-el term =       0.00000000 Ry

     iteration #  2     ecut=    35.00 Ry     beta=0.70
     Davidson diagonalization with overlap
     ethr =  2.10E-03,  avg # of iterations =  8.0

     negative rho (up, down):  2.178E-02 0.000E+00

     add environment contribution to local potential
     polarization accuracy = 5.4E-05, # of iterations =  37

     total cpu time spent up to now is       72.0 secs

     total energy              =    -618.11843548 Ry
     Harris-Foulkes estimate   =    -620.55874909 Ry
     estimated scf accuracy    <      52.50940695 Ry
     electrostatic embedding   =       0.10444137 Ry
     correction to one-el term =      -7.10038135 Ry

     iteration #  3     ecut=    35.00 Ry     beta=0.70
     Davidson diagonalization with overlap
     ethr =  2.10E-03,  avg # of iterations =  3.0

     negative rho (up, down):  7.174E-03 0.000E+00

     add environment contribution to local potential
     polarization accuracy = 7.3E-05, # of iterations =  26

     total cpu time spent up to now is       93.5 secs

     total energy              =    -623.36028669 Ry
     Harris-Foulkes estimate   =    -618.86368034 Ry
     estimated scf accuracy    <       2.93536397 Ry
     electrostatic embedding   =       0.13484293 Ry
     correction to one-el term =      -5.23394487 Ry

     iteration #  4     ecut=    35.00 Ry     beta=0.70
     Davidson diagonalization with overlap
     ethr =  2.10E-03,  avg # of iterations =  2.0

     negative rho (up, down):  9.887E-03 0.000E+00

     add environment contribution to local potential
     polarization accuracy = 9.1E-05, # of iterations =  28

     total cpu time spent up to now is      114.7 secs

     total energy              =    -623.67549567 Ry
     Harris-Foulkes estimate   =    -620.30896126 Ry
     estimated scf accuracy    <       1.92945501 Ry
     electrostatic embedding   =       0.13995949 Ry
     correction to one-el term =      -3.83097176 Ry

     iteration #  5     ecut=    35.00 Ry     beta=0.70
     Davidson diagonalization with overlap
     ethr =  2.10E-03,  avg # of iterations =  1.0

     negative rho (up, down):  9.861E-03 0.000E+00

     add environment contribution to local potential
     polarization accuracy = 6.5E-05, # of iterations =  35

     total cpu time spent up to now is      143.9 secs

     total energy              =    -623.76086556 Ry
     Harris-Foulkes estimate   =    -619.70587249 Ry
     estimated scf accuracy    <       0.50353194 Ry
     electrostatic embedding   =       0.13706430 Ry
     correction to one-el term =      -4.24084518 Ry

     iteration #  6     ecut=    35.00 Ry     beta=0.70
     Davidson diagonalization with overlap
     ethr =  5.66E-04,  avg # of iterations =  1.0

     negative rho (up, down):  7.488E-03 0.000E+00

     add environment contribution to local potential
     polarization accuracy = 7.0E-05, # of iterations =  31

     total cpu time spent up to now is      171.0 secs

     total energy              =    -623.75576745 Ry
     Harris-Foulkes estimate   =    -618.96610093 Ry
     estimated scf accuracy    <       0.58868060 Ry
     electrostatic embedding   =       0.13296877 Ry
     correction to one-el term =      -4.96323992 Ry

     iteration #  7     ecut=    35.00 Ry     beta=0.70
     Davidson diagonalization with overlap
     ethr =  5.66E-04,  avg # of iterations =  1.0

     negative rho (up, down):  3.976E-03 0.000E+00

     add environment contribution to local potential
     polarization accuracy = 4.7E-05, # of iterations =  28

     total cpu time spent up to now is      192.1 secs

     total energy              =    -623.76359506 Ry
     Harris-Foulkes estimate   =    -618.83684675 Ry
     estimated scf accuracy    <       0.06448079 Ry
     electrostatic embedding   =       0.13092149 Ry
     correction to one-el term =      -5.07198390 Ry

     iteration #  8     ecut=    35.00 Ry     beta=0.70
     Davidson diagonalization with overlap
     ethr =  7.25E-05,  avg # of iterations = 11.0

     negative rho (up, down):  2.817E-03 0.000E+00

     add environment contribution to local potential
     polarization accuracy = 9.3E-05, # of iterations =  27

     total cpu time spent up to now is      213.4 secs

     total energy              =    -623.76631279 Ry
     Harris-Foulkes estimate   =    -618.65330461 Ry
     estimated scf accuracy    <       0.07213601 Ry
     electrostatic embedding   =       0.12819780 Ry
     correction to one-el term =      -5.24889868 Ry

     iteration #  9     ecut=    35.00 Ry     beta=0.70
     Davidson diagonalization with overlap
     ethr =  7.25E-05,  avg # of iterations =  1.0

     negative rho (up, down):  3.350E-03 0.000E+00

     add environment contribution to local potential
     polarization accuracy = 7.3E-05, # of iterations =  27

     total cpu time spent up to now is      233.7 secs

     total energy              =    -623.76771788 Ry
     Harris-Foulkes estimate   =    -618.29082626 Ry
     estimated scf accuracy    <       0.07109978 Ry
     electrostatic embedding   =       0.12559689 Ry
     correction to one-el term =      -5.61074705 Ry

     iteration # 10     ecut=    35.00 Ry     beta=0.70
     Davidson diagonalization with overlap
     ethr =  7.25E-05,  avg # of iterations =  1.0

     negative rho (up, down):  2.092E-03 0.000E+00

     total cpu time spent up to now is      238.9 secs

     End of self-consistent calculation

          k = 0.0000 0.0000 0.0000 (  7286 PWs)   bands (ev):

   -27.4716 -13.9731 -12.3115 -11.1182 -10.8502 -10.3138 -10.3045 -10.1370
    -9.9659  -9.1273  -8.9892  -8.8787  -8.6552  -8.6089  -8.5345  -8.4004
    -7.7206  -7.6809  -7.6258  -7.4258  -7.3757  -7.3277  -7.2842  -7.2515
    -7.2333  -7.0558  -7.0326  -6.9448  -6.8344  -6.5962  -6.4942  -5.7408
    -5.6120  -5.3503  -5.1007  -5.0701  -5.0044  -4.8365  -4.6925  -4.5597
    -4.3774  -4.3667  -4.1678  -4.1214  -4.0781  -3.9090  -3.7737  -2.6944
    -2.3701  -2.3028  -1.7148  -1.0439  -0.9003   0.0645   0.3868   0.4714
     1.8184   2.0155   2.1209   2.4196   2.9272   3.2602   3.4773   3.5027
     4.3452   4.5796   4.7744   4.9138   5.0466   5.3897   6.2476   6.6504
     6.7437   6.8062   7.0399   7.3839   7.4736   7.5433   7.6484   7.7267

     the Fermi energy is    -3.9940 ev

!    total energy              =    -623.77104790 Ry
     Harris-Foulkes estimate   =    -618.29869352 Ry
     estimated scf accuracy    <       0.00218056 Ry

     The total energy is the sum of the following terms:

     one-electron contribution =   -3933.60155592 Ry
     hartree contribution      =    2004.84277299 Ry
     xc contribution           =    -262.74122265 Ry
     ewald contribution        =    1573.20467954 Ry
     smearing contrib. (-TS)   =      -0.00135586 Ry
     electrostatic embedding   =       0.12537858 Ry
     correction to one-el term =      -5.59974457 Ry

     convergence has been achieved in  10 iterations

     negative rho (up, down):  2.092E-03 0.000E+00

     Forces acting on atoms (cartesian axes, Ry/au):

     atom    1 type  1   force =    -0.00008122   -0.00439263    0.17499575
     atom    2 type  2   force =     0.00005656    0.00133866    0.22409942
     atom    3 type  3   force =    -0.00459821    0.01197266    0.10204271
     atom    4 type  3   force =     0.00551905    0.01190774    0.10385041
     atom    5 type  3   force =    -0.00272901    0.01151461    0.06943948
     atom    6 type  3   force =     0.00170106    0.00995903    0.14533366
     atom    7 type  3   force =    -0.00232976   -0.01038166   -0.21650692
     atom    8 type  3   force =     0.00140886   -0.02084206   -0.18735676
     atom    9 type  3   force =     0.02312021   -0.00555918   -0.20848930
     atom   10 type  3   force =    -0.02206755   -0.00551717   -0.20740844

     Total force =     0.546518     Total SCF correction =     0.182660
     SCF correction compared to forces is large: reduce conv_thr to get better values

     Writing output data file pwscf.save

     init_run     :     21.32s CPU     22.69s WALL (       1 calls)
     electrons    :    203.80s CPU    215.78s WALL (       1 calls)
     forces       :      7.88s CPU      8.10s WALL (       1 calls)

     Called by init_run:
     wfcinit      :      0.72s CPU      0.69s WALL (       1 calls)
     potinit      :      3.47s CPU      3.66s WALL (       1 calls)

     Called by electrons:
     c_bands      :     20.40s CPU     17.36s WALL (      10 calls)
     sum_band     :     18.19s CPU     18.47s WALL (      10 calls)
     v_of_rho     :      6.50s CPU      7.43s WALL (      11 calls)
     newd         :     10.47s CPU     13.42s WALL (      11 calls)
     mix_rho      :      0.63s CPU      0.82s WALL (      10 calls)

     Called by c_bands:
     init_us_2    :      0.21s CPU      0.24s WALL (      21 calls)
     regterg      :     19.06s CPU     15.93s WALL (      10 calls)

     Called by sum_band:
     sum_band:bec :      0.00s CPU      0.00s WALL (      10 calls)
     addusdens    :     14.34s CPU     14.54s WALL (      10 calls)

     Called by *egterg:
     h_psi        :     13.52s CPU     12.85s WALL (      45 calls)
     s_psi        :      1.33s CPU      0.42s WALL (      45 calls)
     g_psi        :      0.13s CPU      0.13s WALL (      34 calls)
     rdiaghg      :      0.65s CPU      0.62s WALL (      44 calls)

     Called by h_psi:
     h_psi:pot    :     13.40s CPU     12.72s WALL (      45 calls)
     h_psi:calbec :      0.78s CPU      0.43s WALL (      45 calls)
     vloc_psi     :     11.24s CPU     11.86s WALL (      45 calls)
     add_vuspsi   :      1.38s CPU      0.44s WALL (      45 calls)

     General routines
     calbec       :      1.18s CPU      0.64s WALL (      59 calls)
     fft          :     17.51s CPU     18.17s WALL (     844 calls)
     ffts         :      0.17s CPU      0.17s WALL (      21 calls)
     fftw         :     10.71s CPU     11.29s WALL (    2412 calls)
     interpolate  :      0.74s CPU      0.86s WALL (      21 calls)
     davcio       :      0.03s CPU      0.04s WALL (       1 calls)


     Environ routines
     calc_eelect  :      0.02s CPU      0.02s WALL (      20 calls)
     calc_velect  :    142.92s CPU    153.19s WALL (      18 calls)
     dielectric   :      0.59s CPU      0.71s WALL (      11 calls)
     calc_felect  :      0.90s CPU      0.94s WALL (       1 calls)

     PWSCF        :  3m53.52s CPU     4m 7.39s WALL


   This run was terminated on:  12: 9:18  10Oct2017            

=------------------------------------------------------------------------------=
   JOB DONE.
=------------------------------------------------------------------------------=

%%%% IONS %%%%%%%%%%%%%%%%%%%%%%%%%%%%%%%%%%%%%%%%%%%%%%%%%%%%%%%%%%%%%%%%%%%%%%
 number of ions             =         10
 ionic center of charge     =      0.3882415     0.3750182     0.7201831
 total ionic charge         =    -90.0000000
 ionic dipole               =      0.0000000     0.0000000     0.0000000
 ionic quadrupole (pc)      =   -730.5101255  -614.6110457  -876.7220256
 ionic quadrupole (gauss)   =   -741.7601255  -625.8610457  -887.9720256
 ion   1 type =  1 coordinates =      5.3350841     4.6467234    12.9010299
 ion   2 type =  2 coordinates =      5.3350096     4.6196233    15.0798543
 ion   3 type =  3 coordinates =      8.0613271     0.0980580     8.9921429
 ion   4 type =  3 coordinates =      2.6089894     0.0980583     8.9921406
 ion   5 type =  3 coordinates =      0.0000366     4.7208463     8.9687569
 ion   6 type =  3 coordinates =      5.3351596     4.7216127     9.3801964
 ion   7 type =  3 coordinates =      0.0000411     7.8029520     4.6046265
 ion   8 type =  3 coordinates =      5.3351612     7.6977491     4.7534894
 ion   9 type =  3 coordinates =      2.6978606     3.1521739     4.6884123
 ion  10 type =  3 coordinates =      7.9724637     3.1521745     4.6884152

%%%% SYSTEM %%%%%%%%%%%%%%%%%%%%%%%%%%%%%%%%%%%%%%%%%%%%%%%%%%%%%%%%%%%%%%%%%%%%
 system is built from all present ionic types
 system defined dimension   =  0 
 system defined axis        =  3 
 system center              =      0.3882415     0.3750182     0.7201831 
 system width               =      1.5145225 

%%%% ELECTRONS %%%%%%%%%%%%%%%%%%%%%%%%%%%%%%%%%%%%%%%%%%%%%%%%%%%%%%%%%%%%%%%%%
 number of electrons        =         89
 total electronic charge    =     89.0000000
 number of spin components  =  1

%%%% BOUNDARY %%%%%%%%%%%%%%%%%%%%%%%%%%%%%%%%%%%%%%%%%%%%%%%%%%%%%%%%%%%%%%%%%%
 boundary mode              = electronic           
 boundary is built as a function of a smooth density
 function type              =  2 
 using the modified SCCS function with parameters 
 rhomax                     =      0.0050000 
 rhomin                     =      0.0001000 

%%%% DIELECTRIC %%%%%%%%%%%%%%%%%%%%%%%%%%%%%%%%%%%%%%%%%%%%%%%%%%%%%%%%%%%%%%%%%
 dielectric build on homogeneous background
 environment bulk permitt.  =    100.0000000 
 dielectric flags
 need gradient              =  F 
 need factor depend. sqrt   =  T 
 need gradient of logarithm =  T 

%%%% COMPUTE ELECTROSTATIC POTENTIAL %%%%%%%%%%%%%%%%%%%%%%%%%%%%%%%%%%%%%%%%%%%
 Iteration #          1
  pAp =  1295.4915432974053  rzold =  1273.5466545986205  alpha =  0.9830605697024246
 delta_qm =   0.202957E+00 delta_en =   0.278043E+05 tol =   0.100000E-03
 Iteration #          2
  pAp =  21528.891963493526  rzold =  667.2910952602846  alpha =  0.030995143474722618
 delta_qm =   0.741295E-01 delta_en =   0.370925E+04 tol =   0.100000E-03
 Iteration #          3
  pAp =  -1.891352144287322  rzold =  1.0350645297096865  alpha =  -0.5472616682387869
 delta_qm =   0.360685E-01 delta_en =   0.878130E+03 tol =   0.100000E-03
 Iteration #          4
  pAp =  40.650544692380564  rzold =  1.9029859648277683  alpha =  0.04681329559612172
 delta_qm =   0.420994E-01 delta_en =   0.119634E+04 tol =   0.100000E-03
 Iteration #          5
  pAp =  0.9427625028164037  rzold =  -0.8467771051402279  alpha =  -0.8981870859421863
 delta_qm =   0.100863E-01 delta_en =   0.686696E+02 tol =   0.100000E-03
 Iteration #          6
  pAp =  1.1711369755601013  rzold =  0.3279560216866638  alpha =  0.2800321640684408
 delta_qm =   0.368711E-02 delta_en =   0.917649E+01 tol =   0.100000E-03
 Iteration #          7
  pAp =  0.04197313108225906  rzold =  0.0196956010938231  alpha =  0.46924307493819334
 delta_qm =   0.227924E-02 delta_en =   0.350657E+01 tol =   0.100000E-03
 Iteration #          8
  pAp =  0.005937040462836719  rzold =  0.0034599493398168057  alpha =  0.5827734140392975
 delta_qm =   0.265558E-02 delta_en =   0.476019E+01 tol =   0.100000E-03
 Iteration #          9
  pAp =  0.001957608990605622  rzold =  0.0020558323467961817  alpha =  1.050175166063256
 delta_qm =   0.324283E-02 delta_en =   0.709829E+01 tol =   0.100000E-03
 Iteration #         10
  pAp =  0.002873382242442622  rzold =  0.00486711989249926  alpha =  1.693864401542967
 delta_qm =   0.383053E-02 delta_en =   0.990425E+01 tol =   0.100000E-03
 Iteration #         11
  pAp =  0.01940834111897199  rzold =  0.022809482010121274  alpha =  1.1752411950254011
 delta_qm =   0.463208E-02 delta_en =   0.144829E+02 tol =   0.100000E-03
 Iteration #         12
  pAp =  0.3958850937587018  rzold =  0.050106843947810946  alpha =  0.12656916044015504
 delta_qm =   0.481850E-02 delta_en =   0.156721E+02 tol =   0.100000E-03
 Iteration #         13
  pAp =  0.920646679341612  rzold =  0.11785653092948524  alpha =  0.12801494164272523
 delta_qm =   0.392316E-02 delta_en =   0.103891E+02 tol =   0.100000E-03
 Iteration #         14
  pAp =  0.008343948098763055  rzold =  0.005450115561457377  alpha =  0.6531818627042187
 delta_qm =   0.248201E-02 delta_en =   0.415826E+01 tol =   0.100000E-03
 Iteration #         15
  pAp =  0.004115656481267923  rzold =  0.002319099868993572  alpha =  0.5634823701999346
 delta_qm =   0.163607E-02 delta_en =   0.180678E+01 tol =   0.100000E-03
 Iteration #         16
  pAp =  0.0011478797775334056  rzold =  0.0008694912533484552  alpha =  0.7574758876028298
 delta_qm =   0.104951E-02 delta_en =   0.743495E+00 tol =   0.100000E-03
 Iteration #         17
  pAp =  0.0023168019428444864  rzold =  0.0009176849890705559  alpha =  0.3960998875647761
 delta_qm =   0.596877E-03 delta_en =   0.240477E+00 tol =   0.100000E-03
 Iteration #         18
  pAp =  0.0008435714743069466  rzold =  0.0003752782524530549  alpha =  0.4448683530478225
 delta_qm =   0.232673E-03 delta_en =   0.365424E-01 tol =   0.100000E-03
 Iteration #         19
  pAp =  0.00008761569576908024  rzold =  0.000043096894935554715  alpha =  0.4918855526655955
 delta_qm =   0.127293E-03 delta_en =   0.109374E-01 tol =   0.100000E-03
 Iteration #         20
  pAp =  0.00001126461982429572  rzold =  0.000005565914901613063  alpha =  0.49410588092892443
 delta_qm =   0.750687E-04 delta_en =   0.380383E-02 tol =   0.100000E-03
 Iteration #         21
  pAp =  0.000001445937023244475  rzold =  0.000001009726054181479  alpha =  0.6983195242596381
 delta_qm =   0.365213E-04 delta_en =   0.900318E-03 tol =   0.100000E-03
 Iteration #         22
  pAp =  0.000003069520547477333  rzold =  6.074771691110516E-7  alpha =  0.19790620708185294
 delta_qm =   0.301320E-04 delta_en =   0.612860E-03 tol =   0.100000E-03
 Iteration #         23
  pAp =  0.00002452532859748159  rzold =  0.0000021332951807324877  alpha =  0.08698334753205089
 delta_qm =   0.169751E-04 delta_en =   0.194504E-03 tol =   0.100000E-03
 Iteration #         24
  pAp =  2.442318492598485E-7  rzold =  1.4046446294395217E-7  alpha =  0.5751275411852864
 delta_qm =   0.909929E-05 delta_en =   0.558880E-04 tol =   0.100000E-03
 Charges are converged, exit!

%%%% ELECTRONS %%%%%%%%%%%%%%%%%%%%%%%%%%%%%%%%%%%%%%%%%%%%%%%%%%%%%%%%%%%%%%%%%
 number of electrons        =         89
 total electronic charge    =     89.0000000
 number of spin components  =  1

%%%% BOUNDARY %%%%%%%%%%%%%%%%%%%%%%%%%%%%%%%%%%%%%%%%%%%%%%%%%%%%%%%%%%%%%%%%%%
 boundary mode              = electronic           
 boundary is built as a function of a smooth density
 function type              =  2 
 using the modified SCCS function with parameters 
 rhomax                     =      0.0050000 
 rhomin                     =      0.0001000 

%%%% DIELECTRIC %%%%%%%%%%%%%%%%%%%%%%%%%%%%%%%%%%%%%%%%%%%%%%%%%%%%%%%%%%%%%%%%%
 dielectric build on homogeneous background
 environment bulk permitt.  =    100.0000000 
 dielectric flags
 need gradient              =  F 
 need factor depend. sqrt   =  T 
 need gradient of logarithm =  T 

%%%% COMPUTE ELECTROSTATIC POTENTIAL %%%%%%%%%%%%%%%%%%%%%%%%%%%%%%%%%%%%%%%%%%%
 Warning: bad guess with residual norm =   0.232914E+07, reset to no guess
 Iteration #          1
  pAp =  1276.286128111736  rzold =  1274.35255740932  alpha =  0.9984850021795061
 delta_qm =   0.182739E+00 delta_en =   0.225407E+05 tol =   0.100000E-03
 Iteration #          2
  pAp =  1149.4899563418187  rzold =  29.076712436780753  alpha =  0.02529531665445395
 delta_qm =   0.241948E+00 delta_en =   0.395136E+05 tol =   0.100000E-03
 Iteration #          3
  pAp =  57.06067516553978  rzold =  2.4057954756871136  alpha =  0.042162057646664995
 delta_qm =   0.269051E+00 delta_en =   0.488622E+05 tol =   0.100000E-03
 Iteration #          4
  pAp =  1.7572372897984931  rzold =  -1.4179661679953444  alpha =  -0.8069292498100505
 delta_qm =   0.110604E+00 delta_en =   0.825746E+04 tol =   0.100000E-03
 Iteration #          5
  pAp =  -0.3025080659361012  rzold =  0.5233843434663055  alpha =  -1.7301500435920938
 delta_qm =   0.659949E+00 delta_en =   0.293985E+06 tol =   0.100000E-03
 Iteration #          6
  pAp =  103.29402376514483  rzold =  9.08157445874968  alpha =  0.08791965040879872
 delta_qm =   0.262468E-01 delta_en =   0.465004E+03 tol =   0.100000E-03
 Iteration #          7
  pAp =  0.21203069459420687  rzold =  0.06514790593154929  alpha =  0.3072569566223987
 delta_qm =   0.597557E-02 delta_en =   0.241025E+02 tol =   0.100000E-03
 Iteration #          8
  pAp =  0.031122127342453385  rzold =  0.010006355461163748  alpha =  0.32151900643097037
 delta_qm =   0.352986E-02 delta_en =   0.841044E+01 tol =   0.100000E-03
 Iteration #          9
  pAp =  0.002316137861077722  rzold =  0.0009724537835882558  alpha =  0.4198600609791696
 delta_qm =   0.269975E-02 delta_en =   0.491985E+01 tol =   0.100000E-03
 Iteration #         10
  pAp =  0.0007668898850066907  rzold =  0.00035493933246193393  alpha =  0.46282959183747385
 delta_qm =   0.230924E-02 delta_en =   0.359951E+01 tol =   0.100000E-03
 Iteration #         11
  pAp =  0.0002604228015003969  rzold =  0.00022288096322994384  alpha =  0.8558427370638826
 delta_qm =   0.217624E-02 delta_en =   0.319683E+01 tol =   0.100000E-03
 Iteration #         12
  pAp =  0.0004462060322064884  rzold =  0.00036219918165557974  alpha =  0.8117308048582516
 delta_qm =   0.246889E-02 delta_en =   0.411441E+01 tol =   0.100000E-03
 Iteration #         13
  pAp =  0.034182172179808026  rzold =  0.0013534961003901793  alpha =  0.039596550309044194
 delta_qm =   0.184847E-02 delta_en =   0.230637E+01 tol =   0.100000E-03
 Iteration #         14
  pAp =  0.0021906188534582312  rzold =  0.0008482302207094772  alpha =  0.38721031701631453
 delta_qm =   0.247167E-02 delta_en =   0.412368E+01 tol =   0.100000E-03
 Iteration #         15
  pAp =  0.00040595733236821474  rzold =  0.0004369322067547182  alpha =  1.0763008127130178
 delta_qm =   0.424229E-02 delta_en =   0.121480E+02 tol =   0.100000E-03
 Iteration #         16
  pAp =  -0.0006010086419506902  rzold =  0.0019118823134401405  alpha =  -3.181122832501635
 delta_qm =   0.263485E-01 delta_en =   0.468615E+03 tol =   0.100000E-03
 Iteration #         17
  pAp =  0.43782611968639723  rzold =  0.044819408406468655  alpha =  0.10236805524204806
 delta_qm =   0.267789E-02 delta_en =   0.484048E+01 tol =   0.100000E-03
 Iteration #         18
  pAp =  0.002598239216568521  rzold =  0.0007031035780496291  alpha =  0.27060771524271493
 delta_qm =   0.111751E-02 delta_en =   0.842952E+00 tol =   0.100000E-03
 Iteration #         19
  pAp =  0.00013537602632090784  rzold =  0.00007228193098847795  alpha =  0.5339345004641678
 delta_qm =   0.670925E-03 delta_en =   0.303845E+00 tol =   0.100000E-03
 Iteration #         20
  pAp =  0.00008176552845255574  rzold =  0.000035695283579601454  alpha =  0.4365566303447004
 delta_qm =   0.457519E-03 delta_en =   0.141294E+00 tol =   0.100000E-03
 Iteration #         21
  pAp =  0.00003111450525994766  rzold =  0.000017459838098080434  alpha =  0.5611478618159396
 delta_qm =   0.359106E-03 delta_en =   0.870461E-01 tol =   0.100000E-03
 Iteration #         22
  pAp =  0.000016594502980259325  rzold =  0.000008828230117350108  alpha =  0.531997260047625
 delta_qm =   0.245413E-03 delta_en =   0.406537E-01 tol =   0.100000E-03
 Iteration #         23
  pAp =  0.00007000632442735168  rzold =  0.0000045716886089204165  alpha =  0.0653039371273468
 delta_qm =   0.235484E-03 delta_en =   0.374307E-01 tol =   0.100000E-03
 Iteration #         24
  pAp =  0.0000405551741845663  rzold =  0.000007727652118925353  alpha =  0.19054663860539384
 delta_qm =   0.148978E-03 delta_en =   0.149813E-01 tol =   0.100000E-03
 Iteration #         25
  pAp =  0.0000032583398392290945  rzold =  0.0000012841238746803721  alpha =  0.39410372706371505
 delta_qm =   0.113273E-03 delta_en =   0.866071E-02 tol =   0.100000E-03
 Iteration #         26
  pAp =  0.000005901574432314918  rzold =  0.0000018900529846432777  alpha =  0.32026250051071475
 delta_qm =   0.104152E-03 delta_en =   0.732216E-02 tol =   0.100000E-03
 Iteration #         27
  pAp =  0.0000012580107593122134  rzold =  7.250013528827768E-7  alpha =  0.5763077521524168
 delta_qm =   0.888567E-04 delta_en =   0.532947E-02 tol =   0.100000E-03
 Iteration #         28
  pAp =  0.0000010721504140804476  rzold =  5.225607549739812E-7  alpha =  0.4873950036405726
 delta_qm =   0.788353E-04 delta_en =   0.419513E-02 tol =   0.100000E-03
 Iteration #         29
  pAp =  3.7106750181962337E-7  rzold =  1.604500273301103E-7  alpha =  0.4324011845373227
 delta_qm =   0.127862E-03 delta_en =   0.110354E-01 tol =   0.100000E-03
 Iteration #         30
  pAp =  1.1508866769022774E-7  rzold =  1.0331689560498385E-7  alpha =  0.8977156281196274
 delta_qm =   0.462951E-03 delta_en =   0.144669E+00 tol =   0.100000E-03
 Iteration #         31
  pAp =  -0.000005859173262176502  rzold =  6.046900089497308E-7  alpha =  -0.1032039814991078
 delta_qm =   0.123333E-03 delta_en =   0.102674E-01 tol =   0.100000E-03
 Iteration #         32
  pAp =  1.0995413003351343E-7  rzold =  -1.4723135307798353E-8  alpha =  -0.13390252192719657
 delta_qm =   0.949302E-04 delta_en =   0.608293E-02 tol =   0.100000E-03
 Iteration #         33
  pAp =  5.1583676446668245E-9  rzold =  1.6187602378231562E-8  alpha =  3.1381249831945834
 delta_qm =   0.449481E-04 delta_en =   0.136372E-02 tol =   0.100000E-03
 Iteration #         34
  pAp =  0.000007651925418704219  rzold =  2.5328246096342875E-7  alpha =  0.033100487407301434
 delta_qm =   0.363661E-04 delta_en =   0.892681E-03 tol =   0.100000E-03
 Iteration #         35
  pAp =  1.6983655591336914E-7  rzold =  8.854708032671704E-8  alpha =  0.5213664387535241
 delta_qm =   0.213197E-04 delta_en =   0.306807E-03 tol =   0.100000E-03
 Iteration #         36
  pAp =  3.803101499172586E-8  rzold =  2.877010876640546E-8  alpha =  0.7564906898399838
 delta_qm =   0.144851E-04 delta_en =   0.141627E-03 tol =   0.100000E-03
 Iteration #         37
  pAp =  1.2193506002859932E-8  rzold =  9.019492474017404E-9  alpha =  0.7396963983863151
 delta_qm =   0.892324E-05 delta_en =   0.537464E-04 tol =   0.100000E-03
 Charges are converged, exit!

%%%% ELECTRONS %%%%%%%%%%%%%%%%%%%%%%%%%%%%%%%%%%%%%%%%%%%%%%%%%%%%%%%%%%%%%%%%%
 number of electrons        =         89
 total electronic charge    =     89.0000000
 number of spin components  =  1

%%%% BOUNDARY %%%%%%%%%%%%%%%%%%%%%%%%%%%%%%%%%%%%%%%%%%%%%%%%%%%%%%%%%%%%%%%%%%
 boundary mode              = electronic           
 boundary is built as a function of a smooth density
 function type              =  2 
 using the modified SCCS function with parameters 
 rhomax                     =      0.0050000 
 rhomin                     =      0.0001000 

%%%% DIELECTRIC %%%%%%%%%%%%%%%%%%%%%%%%%%%%%%%%%%%%%%%%%%%%%%%%%%%%%%%%%%%%%%%%%
 dielectric build on homogeneous background
 environment bulk permitt.  =    100.0000000 
 dielectric flags
 need gradient              =  F 
 need factor depend. sqrt   =  T 
 need gradient of logarithm =  T 

%%%% COMPUTE ELECTROSTATIC POTENTIAL %%%%%%%%%%%%%%%%%%%%%%%%%%%%%%%%%%%%%%%%%%%
 Warning: bad guess with residual norm =   0.293142E+06, reset to no guess
 Iteration #          1
  pAp =  1276.0749733041669  rzold =  1273.1992430163373  alpha =  0.9977464252900569
 delta_qm =   0.104975E+00 delta_en =   0.743828E+04 tol =   0.100000E-03
 Iteration #          2
  pAp =  2357.645486175414  rzold =  70.9661209346055  alpha =  0.030100420674241037
 delta_qm =   0.104085E+00 delta_en =   0.731269E+04 tol =   0.100000E-03
 Iteration #          3
  pAp =  24.061956207257232  rzold =  3.2669237284359167  alpha =  0.13577132716460488
 delta_qm =   0.121095E+00 delta_en =   0.989824E+04 tol =   0.100000E-03
 Iteration #          4
  pAp =  -4.129290647920761  rzold =  0.8642848213955711  alpha =  -0.20930588207220727
 delta_qm =   0.737371E-01 delta_en =   0.367008E+04 tol =   0.100000E-03
 Iteration #          5
  pAp =  0.7493746487113842  rzold =  -0.510251863319766  alpha =  -0.6809035563148408
 delta_qm =   0.176259E-01 delta_en =   0.209703E+03 tol =   0.100000E-03
 Iteration #          6
  pAp =  0.6663797783013913  rzold =  0.21379348117646496  alpha =  0.3208282846178596
 delta_qm =   0.595055E-02 delta_en =   0.239011E+02 tol =   0.100000E-03
 Iteration #          7
  pAp =  0.03990238796527972  rzold =  0.017517874949223508  alpha =  0.43901821025013194
 delta_qm =   0.137280E-02 delta_en =   0.127208E+01 tol =   0.100000E-03
 Iteration #          8
  pAp =  0.0035619003578065598  rzold =  0.0016382231395751156  alpha =  0.45992952497524203
 delta_qm =   0.100447E-02 delta_en =   0.681049E+00 tol =   0.100000E-03
 Iteration #          9
  pAp =  0.000810833367732051  rzold =  0.00028770822080781953  alpha =  0.3548302675462857
 delta_qm =   0.942005E-03 delta_en =   0.598978E+00 tol =   0.100000E-03
 Iteration #         10
  pAp =  0.00017681338964131878  rzold =  0.00010531230347003618  alpha =  0.5956127173607795
 delta_qm =   0.734521E-03 delta_en =   0.364176E+00 tol =   0.100000E-03
 Iteration #         11
  pAp =  0.00011844675388780365  rzold =  0.00010984853529747796  alpha =  0.9274085755151198
 delta_qm =   0.530000E-03 delta_en =   0.189607E+00 tol =   0.100000E-03
 Iteration #         12
  pAp =  0.00047860053436350384  rzold =  0.0001341489590325124  alpha =  0.28029421072610916
 delta_qm =   0.440951E-03 delta_en =   0.131246E+00 tol =   0.100000E-03
 Iteration #         13
  pAp =  0.009762508330297404  rzold =  0.0006040592589261554  alpha =  0.06187541546586864
 delta_qm =   0.652035E-03 delta_en =   0.286976E+00 tol =   0.100000E-03
 Iteration #         14
  pAp =  0.0001349621256922018  rzold =  0.00008102036502462921  alpha =  0.6003192718630292
 delta_qm =   0.717888E-03 delta_en =   0.347870E+00 tol =   0.100000E-03
 Iteration #         15
  pAp =  0.00011805634182362971  rzold =  0.00008168326281657793  alpha =  0.6919006768701054
 delta_qm =   0.776717E-03 delta_en =   0.407221E+00 tol =   0.100000E-03
 Iteration #         16
  pAp =  0.00008890022614060556  rzold =  0.00011955298110558155  alpha =  1.3447995162182744
 delta_qm =   0.981940E-03 delta_en =   0.650839E+00 tol =   0.100000E-03
 Iteration #         17
  pAp =  0.00024639443063236433  rzold =  0.00028378629293246475  alpha =  1.1517561180426654
 delta_qm =   0.844724E-03 delta_en =   0.481652E+00 tol =   0.100000E-03
 Iteration #         18
  pAp =  0.0005799571338231969  rzold =  0.0003522195573570052  alpha =  0.6073199842117664
 delta_qm =   0.449799E-03 delta_en =   0.136565E+00 tol =   0.100000E-03
 Iteration #         19
  pAp =  0.00012852706504973768  rzold =  0.00006405398218184315  alpha =  0.4983696014302933
 delta_qm =   0.275675E-03 delta_en =   0.512978E-01 tol =   0.100000E-03
 Iteration #         20
  pAp =  0.000020275482666314436  rzold =  0.000010272492749315884  alpha =  0.5066460275385967
 delta_qm =   0.149588E-03 delta_en =   0.151041E-01 tol =   0.100000E-03
 Iteration #         21
  pAp =  0.000003382087438443971  rzold =  0.000002571978424017614  alpha =  0.7604707065766839
 delta_qm =   0.712854E-04 delta_en =   0.343009E-02 tol =   0.100000E-03
 Iteration #         22
  pAp =  0.000002950760622511488  rzold =  9.912775720877896E-7  alpha =  0.33593967756153703
 delta_qm =   0.479868E-04 delta_en =   0.155434E-02 tol =   0.100000E-03
 Iteration #         23
  pAp =  0.00008725422622095296  rzold =  0.000004456790536623429  alpha =  0.051078219699496795
 delta_qm =   0.389983E-04 delta_en =   0.102659E-02 tol =   0.100000E-03
 Iteration #         24
  pAp =  7.733777124171233E-7  rzold =  3.734269197693647E-7  alpha =  0.48285192833169716
 delta_qm =   0.211423E-04 delta_en =   0.301722E-03 tol =   0.100000E-03
 Iteration #         25
  pAp =  1.4616280401519793E-7  rzold =  7.44650967848119E-8  alpha =  0.5094668050913217
 delta_qm =   0.145522E-04 delta_en =   0.142943E-03 tol =   0.100000E-03
 Iteration #         26
  pAp =  1.0962808020148957E-7  rzold =  3.29841995664416E-8  alpha =  0.3008736402737209
 delta_qm =   0.104107E-04 delta_en =   0.731589E-04 tol =   0.100000E-03
 Charges are converged, exit!

%%%% ELECTRONS %%%%%%%%%%%%%%%%%%%%%%%%%%%%%%%%%%%%%%%%%%%%%%%%%%%%%%%%%%%%%%%%%
 number of electrons        =         89
 total electronic charge    =     89.0000000
 number of spin components  =  1

%%%% BOUNDARY %%%%%%%%%%%%%%%%%%%%%%%%%%%%%%%%%%%%%%%%%%%%%%%%%%%%%%%%%%%%%%%%%%
 boundary mode              = electronic           
 boundary is built as a function of a smooth density
 function type              =  2 
 using the modified SCCS function with parameters 
 rhomax                     =      0.0050000 
 rhomin                     =      0.0001000 

%%%% DIELECTRIC %%%%%%%%%%%%%%%%%%%%%%%%%%%%%%%%%%%%%%%%%%%%%%%%%%%%%%%%%%%%%%%%%
 dielectric build on homogeneous background
 environment bulk permitt.  =    100.0000000 
 dielectric flags
 need gradient              =  F 
 need factor depend. sqrt   =  T 
 need gradient of logarithm =  T 

%%%% COMPUTE ELECTROSTATIC POTENTIAL %%%%%%%%%%%%%%%%%%%%%%%%%%%%%%%%%%%%%%%%%%%
 Warning: bad guess with residual norm =   0.460903E+06, reset to no guess
 Iteration #          1
  pAp =  1273.603651959224  rzold =  1271.1798950993145  alpha =  0.9980969300329966
 delta_qm =   0.115931E+00 delta_en =   0.907205E+04 tol =   0.100000E-03
 Iteration #          2
  pAp =  1825.1236041304733  rzold =  54.149035233304964  alpha =  0.029668694827440296
 delta_qm =   0.126654E+00 delta_en =   0.108279E+05 tol =   0.100000E-03
 Iteration #          3
  pAp =  31.81690313111983  rzold =  3.6308366078764633  alpha =  0.11411659371477843
 delta_qm =   0.144252E+00 delta_en =   0.140458E+05 tol =   0.100000E-03
 Iteration #          4
  pAp =  -2.9216191342441316  rzold =  0.3519550212253068  alpha =  -0.12046574349820688
 delta_qm =   0.109554E+00 delta_en =   0.810134E+04 tol =   0.100000E-03
 Iteration #          5
  pAp =  0.18460287812745713  rzold =  -0.23828188961540792  alpha =  -1.2907810107429023
 delta_qm =   0.262822E-01 delta_en =   0.466260E+03 tol =   0.100000E-03
 Iteration #          6
  pAp =  0.6211628679832892  rzold =  0.22013818739121205  alpha =  0.3543968880592107
 delta_qm =   0.793643E-02 delta_en =   0.425161E+02 tol =   0.100000E-03
 Iteration #          7
  pAp =  0.055523569690661266  rzold =  0.02236898981972761  alpha =  0.40287376954241366
 delta_qm =   0.186300E-02 delta_en =   0.234278E+01 tol =   0.100000E-03
 Iteration #          8
  pAp =  0.005449264260712318  rzold =  0.0024022174829943055  alpha =  0.4408333617280458
 delta_qm =   0.133335E-02 delta_en =   0.120003E+01 tol =   0.100000E-03
 Iteration #          9
  pAp =  0.0008786561157845777  rzold =  0.00032563736239797636  alpha =  0.37060842865380306
 delta_qm =   0.125610E-02 delta_en =   0.106500E+01 tol =   0.100000E-03
 Iteration #         10
  pAp =  0.00027548170105916477  rzold =  0.00014734214636056845  alpha =  0.5348527535370635
 delta_qm =   0.944342E-03 delta_en =   0.601953E+00 tol =   0.100000E-03
 Iteration #         11
  pAp =  0.00011768601724511007  rzold =  0.00011488722168609523  alpha =  0.9762181130389888
 delta_qm =   0.438054E-03 delta_en =   0.129527E+00 tol =   0.100000E-03
 Iteration #         12
  pAp =  0.0009929823707733182  rzold =  0.00010755538776425928  alpha =  0.10831550582363002
 delta_qm =   0.517773E-03 delta_en =   0.180960E+00 tol =   0.100000E-03
 Iteration #         13
  pAp =  0.001653978205312367  rzold =  0.0002606189546708179  alpha =  0.15757097272125054
 delta_qm =   0.422751E-03 delta_en =   0.120635E+00 tol =   0.100000E-03
 Iteration #         14
  pAp =  0.00011212372976194874  rzold =  0.00004797689970967435  alpha =  0.4278924703230502
 delta_qm =   0.465088E-03 delta_en =   0.146007E+00 tol =   0.100000E-03
 Iteration #         15
  pAp =  0.00004853172996398265  rzold =  0.000028505511585381966  alpha =  0.587358241845841
 delta_qm =   0.547113E-03 delta_en =   0.202050E+00 tol =   0.100000E-03
 Iteration #         16
  pAp =  0.00002173338936918721  rzold =  0.000032333165362044936  alpha =  1.4877184967700297
 delta_qm =   0.766566E-03 delta_en =   0.396646E+00 tol =   0.100000E-03
 Iteration #         17
  pAp =  0.00004668844301384417  rzold =  0.00009902888761127662  alpha =  2.1210578297055727
 delta_qm =   0.996828E-03 delta_en =   0.670724E+00 tol =   0.100000E-03
 Iteration #         18
  pAp =  0.0004411652157685422  rzold =  0.00043835195313626747  alpha =  0.9936231086864503
 delta_qm =   0.136580E-02 delta_en =   0.125916E+01 tol =   0.100000E-03
 Iteration #         19
  pAp =  0.0005511816150633867  rzold =  0.0003286092316489238  alpha =  0.5961904799947532
 delta_qm =   0.961538E-03 delta_en =   0.624075E+00 tol =   0.100000E-03
 Iteration #         20
  pAp =  0.00023416304605576872  rzold =  0.00011904874089781344  alpha =  0.5084010602999269
 delta_qm =   0.592531E-03 delta_en =   0.236988E+00 tol =   0.100000E-03
 Iteration #         21
  pAp =  0.000060889827546923524  rzold =  0.00003871546556140803  alpha =  0.6358281361787851
 delta_qm =   0.337395E-03 delta_en =   0.768389E-01 tol =   0.100000E-03
 Iteration #         22
  pAp =  0.00007218581942123814  rzold =  0.00001795613619399799  alpha =  0.24874880326862409
 delta_qm =   0.227204E-03 delta_en =   0.348445E-01 tol =   0.100000E-03
 Iteration #         23
  pAp =  0.001286789433576335  rzold =  0.0000775643968713761  alpha =  0.06027745864822943
 delta_qm =   0.172785E-03 delta_en =   0.201518E-01 tol =   0.100000E-03
 Iteration #         24
  pAp =  0.000011703704104451194  rzold =  0.000005561207967806042  alpha =  0.47516648730814914
 delta_qm =   0.744363E-04 delta_en =   0.374001E-02 tol =   0.100000E-03
 Iteration #         25
  pAp =  0.000006003464833407304  rzold =  0.0000015012361586282164  alpha =  0.2500616227939459
 delta_qm =   0.492572E-04 delta_en =   0.163773E-02 tol =   0.100000E-03
 Iteration #         26
  pAp =  0.0000026506147889824743  rzold =  6.842200243617558E-7  alpha =  0.258136349048447
 delta_qm =   0.384498E-04 delta_en =   0.997912E-03 tol =   0.100000E-03
 Iteration #         27
  pAp =  2.069772153677577E-7  rzold =  1.378197348939096E-7  alpha =  0.6658691134143974
 delta_qm =   0.198457E-04 delta_en =   0.265851E-03 tol =   0.100000E-03
 Iteration #         28
  pAp =  4.464202383787083E-8  rzold =  4.1938135721302534E-8  alpha =  0.9394317756204743
 delta_qm =   0.116086E-04 delta_en =   0.909634E-04 tol =   0.100000E-03
 Charges are converged, exit!

%%%% ELECTRONS %%%%%%%%%%%%%%%%%%%%%%%%%%%%%%%%%%%%%%%%%%%%%%%%%%%%%%%%%%%%%%%%%
 number of electrons        =         89
 total electronic charge    =     89.0000000
 number of spin components  =  1

%%%% BOUNDARY %%%%%%%%%%%%%%%%%%%%%%%%%%%%%%%%%%%%%%%%%%%%%%%%%%%%%%%%%%%%%%%%%%
 boundary mode              = electronic           
 boundary is built as a function of a smooth density
 function type              =  2 
 using the modified SCCS function with parameters 
 rhomax                     =      0.0050000 
 rhomin                     =      0.0001000 

%%%% DIELECTRIC %%%%%%%%%%%%%%%%%%%%%%%%%%%%%%%%%%%%%%%%%%%%%%%%%%%%%%%%%%%%%%%%%
 dielectric build on homogeneous background
 environment bulk permitt.  =    100.0000000 
 dielectric flags
 need gradient              =  F 
 need factor depend. sqrt   =  T 
 need gradient of logarithm =  T 

%%%% COMPUTE ELECTROSTATIC POTENTIAL %%%%%%%%%%%%%%%%%%%%%%%%%%%%%%%%%%%%%%%%%%%
 Warning: bad guess with residual norm =   0.458067E+06, reset to no guess
 Iteration #          1
  pAp =  1272.3420058403783  rzold =  1270.0469599346604  alpha =  0.9981962036188516
 delta_qm =   0.112335E+00 delta_en =   0.851792E+04 tol =   0.100000E-03
 Iteration #          2
  pAp =  1663.0650867511017  rzold =  49.91482823847727  alpha =  0.030013755105633845
 delta_qm =   0.118808E+00 delta_en =   0.952780E+04 tol =   0.100000E-03
 Iteration #          3
  pAp =  36.14949303030281  rzold =  4.009517982004405  alpha =  0.11091491597526337
 delta_qm =   0.133691E+00 delta_en =   0.120644E+05 tol =   0.100000E-03
 Iteration #          4
  pAp =  -2.960443684711141  rzold =  0.45036582463227687  alpha =  -0.1521278134619272
 delta_qm =   0.945166E-01 delta_en =   0.603004E+04 tol =   0.100000E-03
 Iteration #          5
  pAp =  0.2883557939946492  rzold =  -0.2902612105824157  alpha =  -1.0066078664880298
 delta_qm =   0.236451E-01 delta_en =   0.377386E+03 tol =   0.100000E-03
 Iteration #          6
  pAp =  0.550796922709969  rzold =  0.19787139424913  alpha =  0.35924564225156785
 delta_qm =   0.726484E-02 delta_en =   0.356251E+02 tol =   0.100000E-03
 Iteration #          7
  pAp =  0.04890709810772437  rzold =  0.01937120105664357  alpha =  0.39608158746151595
 delta_qm =   0.198827E-02 delta_en =   0.266843E+01 tol =   0.100000E-03
 Iteration #          8
  pAp =  0.005904318304648066  rzold =  0.0025196560843661646  alpha =  0.42674800956828696
 delta_qm =   0.140812E-02 delta_en =   0.133839E+01 tol =   0.100000E-03
 Iteration #          9
  pAp =  0.0005622619547203596  rzold =  0.0002757493167176614  alpha =  0.49042855274603286
 delta_qm =   0.128472E-02 delta_en =   0.111409E+01 tol =   0.100000E-03
 Iteration #         10
  pAp =  0.0002256351059450974  rzold =  0.00013444393834794144  alpha =  0.5958467224539739
 delta_qm =   0.895264E-03 delta_en =   0.541011E+00 tol =   0.100000E-03
 Iteration #         11
  pAp =  0.00024365333498208838  rzold =  0.0001594154255811926  alpha =  0.6542714697211579
 delta_qm =   0.430861E-03 delta_en =   0.125308E+00 tol =   0.100000E-03
 Iteration #         12
  pAp =  0.00018432778979717964  rzold =  0.00009443023671640715  alpha =  0.512295171662998
 delta_qm =   0.348305E-03 delta_en =   0.818886E-01 tol =   0.100000E-03
 Iteration #         13
  pAp =  0.0009896024111600446  rzold =  0.000059802369211938455  alpha =  0.06043070281309859
 delta_qm =   0.402099E-03 delta_en =   0.109136E+00 tol =   0.100000E-03
 Iteration #         14
  pAp =  0.00028507643484649664  rzold =  0.00006231243448023778  alpha =  0.2185814990768731
 delta_qm =   0.310260E-03 delta_en =   0.649765E-01 tol =   0.100000E-03
 Iteration #         15
  pAp =  0.00002992086700264664  rzold =  0.000014151065507837455  alpha =  0.47294971454489365
 delta_qm =   0.320899E-03 delta_en =   0.695091E-01 tol =   0.100000E-03
 Iteration #         16
  pAp =  0.000014888166571636027  rzold =  0.00001284871186763154  alpha =  0.8630150533182558
 delta_qm =   0.402390E-03 delta_en =   0.109295E+00 tol =   0.100000E-03
 Iteration #         17
  pAp =  0.00001187217007778181  rzold =  0.000022316492752509302  alpha =  1.8797315576091296
 delta_qm =   0.622580E-03 delta_en =   0.261634E+00 tol =   0.100000E-03
 Iteration #         18
  pAp =  0.00006463974599729294  rzold =  0.00011545223946182932  alpha =  1.7860874556447726
 delta_qm =   0.136271E-02 delta_en =   0.125346E+01 tol =   0.100000E-03
 Iteration #         19
  pAp =  0.0003024882353073138  rzold =  0.0002927877085585904  alpha =  0.967930895762382
 delta_qm =   0.172989E-02 delta_en =   0.201996E+01 tol =   0.100000E-03
 Iteration #         20
  pAp =  0.000352709067646919  rzold =  0.0003076629210638241  alpha =  0.872285260813911
 delta_qm =   0.143082E-02 delta_en =   0.138189E+01 tol =   0.100000E-03
 Iteration #         21
  pAp =  0.0002258456366598932  rzold =  0.00024523459419623577  alpha =  1.085850485416023
 delta_qm =   0.103171E-02 delta_en =   0.718494E+00 tol =   0.100000E-03
 Iteration #         22
  pAp =  0.00027967062622056535  rzold =  0.00018063451800114138  alpha =  0.6458830533696519
 delta_qm =   0.677484E-03 delta_en =   0.309814E+00 tol =   0.100000E-03
 Iteration #         23
  pAp =  0.0003308993178753481  rzold =  0.00008654639320889411  alpha =  0.2615490227196439
 delta_qm =   0.603283E-03 delta_en =   0.245667E+00 tol =   0.100000E-03
 Iteration #         24
  pAp =  0.005209623153076603  rzold =  0.0002601203858153768  alpha =  0.04993074895671863
 delta_qm =   0.441524E-03 delta_en =   0.131587E+00 tol =   0.100000E-03
 Iteration #         25
  pAp =  0.0003602539522557529  rzold =  0.00006873800391759446  alpha =  0.19080430204078844
 delta_qm =   0.381157E-03 delta_en =   0.980642E-01 tol =   0.100000E-03
 Iteration #         26
  pAp =  0.000024440713345929276  rzold =  0.000015381598670045267  alpha =  0.6293432786652747
 delta_qm =   0.255936E-03 delta_en =   0.442148E-01 tol =   0.100000E-03
 Iteration #         27
  pAp =  0.000017870620896864393  rzold =  0.000009816552348673903  alpha =  0.549312326937467
 delta_qm =   0.156096E-03 delta_en =   0.164470E-01 tol =   0.100000E-03
 Iteration #         28
  pAp =  0.000006396749014260691  rzold =  0.000003872474937246743  alpha =  0.6053817225927705
 delta_qm =   0.131917E-03 delta_en =   0.117463E-01 tol =   0.100000E-03
 Iteration #         29
  pAp =  3.885707677553584E-8  rzold =  1.6867569888219004E-7  alpha =  4.340926103540221
 delta_qm =   0.128928E-02 delta_en =   0.112201E+01 tol =   0.100000E-03
 Iteration #         30
  pAp =  -0.02876871708157059  rzold =  0.00014489166196675733  alpha =  -0.0050364311191191695
 delta_qm =   0.128273E-03 delta_en =   0.111064E-01 tol =   0.100000E-03
 Iteration #         31
  pAp =  4.567872259585451E-8  rzold =  -1.6464351302941908E-7  alpha =  -3.6043808511484294
 delta_qm =   0.856908E-04 delta_en =   0.495647E-02 tol =   0.100000E-03
 Iteration #         32
  pAp =  4.893485916129153E-7  rzold =  4.4403578046720716E-7  alpha =  0.9074017746809999
 delta_qm =   0.424080E-04 delta_en =   0.121394E-02 tol =   0.100000E-03
 Iteration #         33
  pAp =  2.3535692260371698E-7  rzold =  1.6010511595034692E-7  alpha =  0.6802651656859249
 delta_qm =   0.236632E-04 delta_en =   0.377965E-03 tol =   0.100000E-03
 Iteration #         34
  pAp =  3.5812117729717745E-7  rzold =  8.116774502936807E-8  alpha =  0.22664882775701686
 delta_qm =   0.193415E-04 delta_en =   0.252514E-03 tol =   0.100000E-03
 Iteration #         35
  pAp =  0.000005206821433850398  rzold =  3.500139824903691E-7  alpha =  0.06722219821384136
 delta_qm =   0.981526E-05 delta_en =   0.650291E-04 tol =   0.100000E-03
 Charges are converged, exit!

%%%% ELECTRONS %%%%%%%%%%%%%%%%%%%%%%%%%%%%%%%%%%%%%%%%%%%%%%%%%%%%%%%%%%%%%%%%%
 number of electrons        =         89
 total electronic charge    =     89.0000000
 number of spin components  =  1

%%%% BOUNDARY %%%%%%%%%%%%%%%%%%%%%%%%%%%%%%%%%%%%%%%%%%%%%%%%%%%%%%%%%%%%%%%%%%
 boundary mode              = electronic           
 boundary is built as a function of a smooth density
 function type              =  2 
 using the modified SCCS function with parameters 
 rhomax                     =      0.0050000 
 rhomin                     =      0.0001000 

%%%% DIELECTRIC %%%%%%%%%%%%%%%%%%%%%%%%%%%%%%%%%%%%%%%%%%%%%%%%%%%%%%%%%%%%%%%%%
 dielectric build on homogeneous background
 environment bulk permitt.  =    100.0000000 
 dielectric flags
 need gradient              =  F 
 need factor depend. sqrt   =  T 
 need gradient of logarithm =  T 

%%%% COMPUTE ELECTROSTATIC POTENTIAL %%%%%%%%%%%%%%%%%%%%%%%%%%%%%%%%%%%%%%%%%%%
 Warning: bad guess with residual norm =   0.303758E+06, reset to no guess
 Iteration #          1
  pAp =  1271.513307379225  rzold =  1269.4930404914453  alpha =  0.998411131935423
 delta_qm =   0.961684E-01 delta_en =   0.624264E+04 tol =   0.100000E-03
 Iteration #          2
  pAp =  1223.3064211290125  rzold =  39.30765537761951  alpha =  0.032132305282385205
 delta_qm =   0.965840E-01 delta_en =   0.629671E+04 tol =   0.100000E-03
 Iteration #          3
  pAp =  41.13056502845021  rzold =  4.606957396399811  alpha =  0.11200812323422148
 delta_qm =   0.103921E+00 delta_en =   0.728968E+04 tol =   0.100000E-03
 Iteration #          4
  pAp =  -3.1193985137316256  rzold =  0.7514386518828078  alpha =  -0.2408921619263992
 delta_qm =   0.618961E-01 delta_en =   0.258601E+04 tol =   0.100000E-03
 Iteration #          5
  pAp =  0.8195076351761975  rzold =  -0.49602221226209914  alpha =  -0.6052685673336677
 delta_qm =   0.153853E-01 delta_en =   0.159778E+03 tol =   0.100000E-03
 Iteration #          6
  pAp =  0.555092546677445  rzold =  0.18908126081558274  alpha =  0.3406301560836029
 delta_qm =   0.504755E-02 delta_en =   0.171975E+02 tol =   0.100000E-03
 Iteration #          7
  pAp =  0.04228662227955442  rzold =  0.01637016271740771  alpha =  0.38712391378023786
 delta_qm =   0.160129E-02 delta_en =   0.173080E+01 tol =   0.100000E-03
 Iteration #          8
  pAp =  0.005213104393040317  rzold =  0.002195467085395762  alpha =  0.4211438942843328
 delta_qm =   0.105349E-02 delta_en =   0.749141E+00 tol =   0.100000E-03
 Iteration #          9
  pAp =  0.0011759901379791236  rzold =  0.0003868358397719241  alpha =  0.3289447991772116
 delta_qm =   0.102304E-02 delta_en =   0.706461E+00 tol =   0.100000E-03
 Iteration #         10
  pAp =  0.0002542682062171212  rzold =  0.00013678582328583845  alpha =  0.5379588164830807
 delta_qm =   0.816536E-03 delta_en =   0.450043E+00 tol =   0.100000E-03
 Iteration #         11
  pAp =  0.00008662785044202532  rzold =  0.000087529716117927  alpha =  1.010410805200635
 delta_qm =   0.315182E-03 delta_en =   0.670544E-01 tol =   0.100000E-03
 Iteration #         12
  pAp =  0.00018729796229774735  rzold =  0.00006278683020027313  alpha =  0.33522431013136694
 delta_qm =   0.202756E-03 delta_en =   0.277492E-01 tol =   0.100000E-03
 Iteration #         13
  pAp =  0.005718397017878365  rzold =  0.00026907328123028764  alpha =  0.04705396991307872
 delta_qm =   0.185673E-03 delta_en =   0.232704E-01 tol =   0.100000E-03
 Iteration #         14
  pAp =  0.00004432393572098723  rzold =  0.000016021537129568953  alpha =  0.36146467746957794
 delta_qm =   0.129419E-03 delta_en =   0.113057E-01 tol =   0.100000E-03
 Iteration #         15
  pAp =  0.000013242321917008078  rzold =  0.000004908562322913575  alpha =  0.3706723302511738
 delta_qm =   0.109769E-03 delta_en =   0.813329E-02 tol =   0.100000E-03
 Iteration #         16
  pAp =  0.0000036670610261171483  rzold =  0.000002348009838079905  alpha =  0.6402974538348725
 delta_qm =   0.120965E-03 delta_en =   0.987688E-02 tol =   0.100000E-03
 Iteration #         17
  pAp =  0.000001482569484322583  rzold =  0.000002022534794603359  alpha =  1.364209108571729
 delta_qm =   0.155542E-03 delta_en =   0.163304E-01 tol =   0.100000E-03
 Iteration #         18
  pAp =  0.000004017723967989816  rzold =  0.000006943750964416888  alpha =  1.7282797473742448
 delta_qm =   0.251458E-03 delta_en =   0.426810E-01 tol =   0.100000E-03
 Iteration #         19
  pAp =  0.00001770521552609174  rzold =  0.00001949536775646393  alpha =  1.1011087511323479
 delta_qm =   0.341167E-03 delta_en =   0.785665E-01 tol =   0.100000E-03
 Iteration #         20
  pAp =  0.000027410855552190562  rzold =  0.00002027330879562442  alpha =  0.739608756721359
 delta_qm =   0.322910E-03 delta_en =   0.703828E-01 tol =   0.100000E-03
 Iteration #         21
  pAp =  0.000009825073863854352  rzold =  0.000010665296248425145  alpha =  1.0855181748466953
 delta_qm =   0.171760E-03 delta_en =   0.199134E-01 tol =   0.100000E-03
 Iteration #         22
  pAp =  0.000011961860426618453  rzold =  0.000007068560896171337  alpha =  0.5909248765720282
 delta_qm =   0.108078E-03 delta_en =   0.788455E-02 tol =   0.100000E-03
 Iteration #         23
  pAp =  0.00007200893585082864  rzold =  0.000004607377685065003  alpha =  0.06398341581674664
 delta_qm =   0.108497E-03 delta_en =   0.794577E-02 tol =   0.100000E-03
 Iteration #         24
  pAp =  0.00002729578231204684  rzold =  0.00000490118706572798  alpha =  0.17955840245563756
 delta_qm =   0.756928E-04 delta_en =   0.386735E-02 tol =   0.100000E-03
 Iteration #         25
  pAp =  0.00000821797492016924  rzold =  0.0000017384943219940264  alpha =  0.21154777653643947
 delta_qm =   0.627382E-04 delta_en =   0.265685E-02 tol =   0.100000E-03
 Iteration #         26
  pAp =  8.42947562441497E-7  rzold =  5.007511827820176E-7  alpha =  0.5940478448406109
 delta_qm =   0.376189E-04 delta_en =   0.955248E-03 tol =   0.100000E-03
 Iteration #         27
  pAp =  4.561220292823103E-7  rzold =  2.668758866131066E-7  alpha =  0.5850975604774562
 delta_qm =   0.288336E-04 delta_en =   0.561179E-03 tol =   0.100000E-03
 Iteration #         28
  pAp =  1.3945970257593675E-7  rzold =  1.2541913694175096E-7  alpha =  0.8993217010014731
 delta_qm =   0.264491E-04 delta_en =   0.472201E-03 tol =   0.100000E-03
 Iteration #         29
  pAp =  5.9225840444277045E-8  rzold =  9.936355706307E-8  alpha =  1.6777061552475012
 delta_qm =   0.410620E-04 delta_en =   0.113811E-02 tol =   0.100000E-03
 Iteration #         30
  pAp =  1.8134121665758312E-7  rzold =  -9.280676507805811E-7  alpha =  -5.117797640748167
 delta_qm =   0.166465E-02 delta_en =   0.187045E+01 tol =   0.100000E-03
 Iteration #         31
  pAp =  -0.08943545731579211  rzold =  0.0006642440499101322  alpha =  -0.007427077244819354
 delta_qm =   0.101992E-04 delta_en =   0.702161E-04 tol =   0.100000E-03
 Charges are converged, exit!

%%%% ELECTRONS %%%%%%%%%%%%%%%%%%%%%%%%%%%%%%%%%%%%%%%%%%%%%%%%%%%%%%%%%%%%%%%%%
 number of electrons        =         89
 total electronic charge    =     89.0000000
 number of spin components  =  1

%%%% BOUNDARY %%%%%%%%%%%%%%%%%%%%%%%%%%%%%%%%%%%%%%%%%%%%%%%%%%%%%%%%%%%%%%%%%%
 boundary mode              = electronic           
 boundary is built as a function of a smooth density
 function type              =  2 
 using the modified SCCS function with parameters 
 rhomax                     =      0.0050000 
 rhomin                     =      0.0001000 

%%%% DIELECTRIC %%%%%%%%%%%%%%%%%%%%%%%%%%%%%%%%%%%%%%%%%%%%%%%%%%%%%%%%%%%%%%%%%
 dielectric build on homogeneous background
 environment bulk permitt.  =    100.0000000 
 dielectric flags
 need gradient              =  F 
 need factor depend. sqrt   =  T 
 need gradient of logarithm =  T 

%%%% COMPUTE ELECTROSTATIC POTENTIAL %%%%%%%%%%%%%%%%%%%%%%%%%%%%%%%%%%%%%%%%%%%
 Warning: bad guess with residual norm =   0.179644E+06, reset to no guess
 Iteration #          1
  pAp =  1271.9631059164105  rzold =  1269.817260566045  alpha =  0.9983129657295999
 delta_qm =   0.815432E-01 delta_en =   0.448827E+04 tol =   0.100000E-03
 Iteration #          2
  pAp =  1260.0511158293602  rzold =  41.67155585617004  alpha =  0.033071321736612244
 delta_qm =   0.765316E-01 delta_en =   0.395353E+04 tol =   0.100000E-03
 Iteration #          3
  pAp =  46.048706057443724  rzold =  5.253073703788939  alpha =  0.11407646714841371
 delta_qm =   0.785418E-01 delta_en =   0.416395E+04 tol =   0.100000E-03
 Iteration #          4
  pAp =  -2.8775937566084244  rzold =  0.9581837754841401  alpha =  -0.33298090575977274
 delta_qm =   0.419736E-01 delta_en =   0.118920E+04 tol =   0.100000E-03
 Iteration #          5
  pAp =  1.9824270586834  rzold =  -0.8282503738784934  alpha =  -0.41779614046862523
 delta_qm =   0.105542E-01 delta_en =   0.751887E+02 tol =   0.100000E-03
 Iteration #          6
  pAp =  0.6719310044424243  rzold =  0.21248207993357562  alpha =  0.31622603887715467
 delta_qm =   0.345850E-02 delta_en =   0.807385E+01 tol =   0.100000E-03
 Iteration #          7
  pAp =  0.0382720121888466  rzold =  0.014823907095406173  alpha =  0.38733022508093323
 delta_qm =   0.118229E-02 delta_en =   0.943524E+00 tol =   0.100000E-03
 Iteration #          8
  pAp =  0.004249642867314168  rzold =  0.001851494165076114  alpha =  0.4356822968152812
 delta_qm =   0.790983E-03 delta_en =   0.422317E+00 tol =   0.100000E-03
 Iteration #          9
  pAp =  0.0010858307689090975  rzold =  0.00036899020835614985  alpha =  0.3398229437970924
 delta_qm =   0.740304E-03 delta_en =   0.369934E+00 tol =   0.100000E-03
 Iteration #         10
  pAp =  0.0002641862851216934  rzold =  0.00013287617930652192  alpha =  0.5029639568356643
 delta_qm =   0.602506E-03 delta_en =   0.245034E+00 tol =   0.100000E-03
 Iteration #         11
  pAp =  0.0000852223713604614  rzold =  0.00007983136918626858  alpha =  0.9367419365580578
 delta_qm =   0.282519E-03 delta_en =   0.538766E-01 tol =   0.100000E-03
 Iteration #         12
  pAp =  0.00011737016988100642  rzold =  0.000058353471704074186  alpha =  0.49717463784226246
 delta_qm =   0.167064E-03 delta_en =   0.188395E-01 tol =   0.100000E-03
 Iteration #         13
  pAp =  0.0031747782552891935  rzold =  0.00011343839470324277  alpha =  0.03573112374517935
 delta_qm =   0.105079E-03 delta_en =   0.745314E-02 tol =   0.100000E-03
 Iteration #         14
  pAp =  0.00003671327825078899  rzold =  0.000013864432343189962  alpha =  0.3776408156330198
 delta_qm =   0.851194E-04 delta_en =   0.489059E-02 tol =   0.100000E-03
 Iteration #         15
  pAp =  0.0000049770120613729854  rzold =  0.0000025246496018382977  alpha =  0.5072621023831383
 delta_qm =   0.704357E-04 delta_en =   0.334880E-02 tol =   0.100000E-03
 Iteration #         16
  pAp =  0.000002700322663809619  rzold =  0.0000016581402673496272  alpha =  0.6140526425128472
 delta_qm =   0.783567E-04 delta_en =   0.414435E-02 tol =   0.100000E-03
 Iteration #         17
  pAp =  0.000001976216817887074  rzold =  0.000001828035367306313  alpha =  0.9250176148489652
 delta_qm =   0.991065E-04 delta_en =   0.662992E-02 tol =   0.100000E-03
 Iteration #         18
  pAp =  0.0000035884114492465634  rzold =  0.000005133829257977308  alpha =  1.430669066406871
 delta_qm =   0.176985E-03 delta_en =   0.211435E-01 tol =   0.100000E-03
 Iteration #         19
  pAp =  0.000008653962680082213  rzold =  0.000012051933262049355  alpha =  1.3926490912409228
 delta_qm =   0.228937E-03 delta_en =   0.353782E-01 tol =   0.100000E-03
 Iteration #         20
  pAp =  0.000019058187277124533  rzold =  0.000016040657578939294  alpha =  0.8416675387691689
 delta_qm =   0.246607E-03 delta_en =   0.410500E-01 tol =   0.100000E-03
 Iteration #         21
  pAp =  0.000008062203118678168  rzold =  0.00001034334872584096  alpha =  1.2829432071585907
 delta_qm =   0.141778E-03 delta_en =   0.135682E-01 tol =   0.100000E-03
 Iteration #         22
  pAp =  0.000014135529303764322  rzold =  0.00000952751935014021  alpha =  0.6740122103247319
 delta_qm =   0.111520E-03 delta_en =   0.839476E-02 tol =   0.100000E-03
 Iteration #         23
  pAp =  0.000056124119042480795  rzold =  0.000006060276998656475  alpha =  0.10797990422031217
 delta_qm =   0.101545E-03 delta_en =   0.696016E-02 tol =   0.100000E-03
 Iteration #         24
  pAp =  0.00012012980915850279  rzold =  0.000011289229214324985  alpha =  0.09397525304838907
 delta_qm =   0.916427E-04 delta_en =   0.566891E-02 tol =   0.100000E-03
 Iteration #         25
  pAp =  0.000013416676744164866  rzold =  0.000003252814169388652  alpha =  0.2424455944951759
 delta_qm =   0.712265E-04 delta_en =   0.342442E-02 tol =   0.100000E-03
 Iteration #         26
  pAp =  0.0000014193401179209083  rzold =  9.506882375839959E-7  alpha =  0.6698100233907236
 delta_qm =   0.353494E-04 delta_en =   0.843468E-03 tol =   0.100000E-03
 Iteration #         27
  pAp =  8.644679915080087E-7  rzold =  4.732190336545628E-7  alpha =  0.5474107061258134
 delta_qm =   0.179449E-04 delta_en =   0.217364E-03 tol =   0.100000E-03
 Iteration #         28
  pAp =  2.6553969704641126E-7  rzold =  1.5612535866269892E-7  alpha =  0.5879548722819067
 delta_qm =   0.833841E-05 delta_en =   0.469321E-04 tol =   0.100000E-03
 Charges are converged, exit!

%%%% ELECTRONS %%%%%%%%%%%%%%%%%%%%%%%%%%%%%%%%%%%%%%%%%%%%%%%%%%%%%%%%%%%%%%%%%
 number of electrons        =         89
 total electronic charge    =     89.0000000
 number of spin components  =  1

%%%% BOUNDARY %%%%%%%%%%%%%%%%%%%%%%%%%%%%%%%%%%%%%%%%%%%%%%%%%%%%%%%%%%%%%%%%%%
 boundary mode              = electronic           
 boundary is built as a function of a smooth density
 function type              =  2 
 using the modified SCCS function with parameters 
 rhomax                     =      0.0050000 
 rhomin                     =      0.0001000 

%%%% DIELECTRIC %%%%%%%%%%%%%%%%%%%%%%%%%%%%%%%%%%%%%%%%%%%%%%%%%%%%%%%%%%%%%%%%%
 dielectric build on homogeneous background
 environment bulk permitt.  =    100.0000000 
 dielectric flags
 need gradient              =  F 
 need factor depend. sqrt   =  T 
 need gradient of logarithm =  T 

%%%% COMPUTE ELECTROSTATIC POTENTIAL %%%%%%%%%%%%%%%%%%%%%%%%%%%%%%%%%%%%%%%%%%%
 Warning: bad guess with residual norm =   0.143436E+06, reset to no guess
 Iteration #          1
  pAp =  1271.9471248275884  rzold =  1269.7424320617367  alpha =  0.99826667891863
 delta_qm =   0.787153E-01 delta_en =   0.418237E+04 tol =   0.100000E-03
 Iteration #          2
  pAp =  1318.9730433804252  rzold =  43.46822953251018  alpha =  0.03295611669295719
 delta_qm =   0.692115E-01 delta_en =   0.323341E+04 tol =   0.100000E-03
 Iteration #          3
  pAp =  47.441656367029125  rzold =  5.3923266599835955  alpha =  0.11366227642361872
 delta_qm =   0.696993E-01 delta_en =   0.327914E+04 tol =   0.100000E-03
 Iteration #          4
  pAp =  -2.7120869095427893  rzold =  0.960056262325602  alpha =  -0.35399170245891964
 delta_qm =   0.368866E-01 delta_en =   0.918421E+03 tol =   0.100000E-03
 Iteration #          5
  pAp =  2.2744817885303292  rzold =  -0.895107098745957  alpha =  -0.3935433131448971
 delta_qm =   0.971616E-02 delta_en =   0.637225E+02 tol =   0.100000E-03
 Iteration #          6
  pAp =  0.6910112342679051  rzold =  0.21656311219495117  alpha =  0.31340027694975164
 delta_qm =   0.297201E-02 delta_en =   0.596217E+01 tol =   0.100000E-03
 Iteration #          7
  pAp =  0.03772238797303439  rzold =  0.014446715512360467  alpha =  0.3829745752757649
 delta_qm =   0.107820E-02 delta_en =   0.784702E+00 tol =   0.100000E-03
 Iteration #          8
  pAp =  0.0042089187652861754  rzold =  0.001825831003217334  alpha =  0.43380048535890214
 delta_qm =   0.733240E-03 delta_en =   0.362907E+00 tol =   0.100000E-03
 Iteration #          9
  pAp =  0.0011634607659142308  rzold =  0.0003887050326198065  alpha =  0.33409380359669255
 delta_qm =   0.687241E-03 delta_en =   0.318803E+00 tol =   0.100000E-03
 Iteration #         10
  pAp =  0.0002698568529470582  rzold =  0.0001375250804514286  alpha =  0.5096223384714597
 delta_qm =   0.563341E-03 delta_en =   0.214213E+00 tol =   0.100000E-03
 Iteration #         11
  pAp =  0.00008186278368053705  rzold =  0.00007992024504516258  alpha =  0.976270796715696
 delta_qm =   0.264166E-03 delta_en =   0.471040E-01 tol =   0.100000E-03
 Iteration #         12
  pAp =  0.00012153301260873162  rzold =  0.00005964900700896918  alpha =  0.4908049733038845
 delta_qm =   0.198902E-03 delta_en =   0.267044E-01 tol =   0.100000E-03
 Iteration #         13
  pAp =  0.003740422019833249  rzold =  0.0001373764936979025  alpha =  0.03672753848883257
 delta_qm =   0.122874E-03 delta_en =   0.101911E-01 tol =   0.100000E-03
 Iteration #         14
  pAp =  0.000053631441120752605  rzold =  0.000017296375567232372  alpha =  0.3225043967826471
 delta_qm =   0.110499E-03 delta_en =   0.824174E-02 tol =   0.100000E-03
 Iteration #         15
  pAp =  0.000014446910320983413  rzold =  0.000005721482331758391  alpha =  0.3960350140367539
 delta_qm =   0.103248E-03 delta_en =   0.719559E-02 tol =   0.100000E-03
 Iteration #         16
  pAp =  0.0000030520204608615535  rzold =  0.0000034738303431509186  alpha =  1.1382067675163268
 delta_qm =   0.122541E-03 delta_en =   0.101360E-01 tol =   0.100000E-03
 Iteration #         17
  pAp =  0.0000018995200224751143  rzold =  0.0000055371379656204214  alpha =  2.91501953130529
 delta_qm =   0.218352E-03 delta_en =   0.321825E-01 tol =   0.100000E-03
 Iteration #         18
  pAp =  0.00001800689910849186  rzold =  0.000026077387832045522  alpha =  1.448188701171081
 delta_qm =   0.287306E-03 delta_en =   0.557178E-01 tol =   0.100000E-03
 Iteration #         19
  pAp =  0.00004992545203847182  rzold =  0.00003629754993603915  alpha =  0.7270349782325214
 delta_qm =   0.231480E-03 delta_en =   0.361686E-01 tol =   0.100000E-03
 Iteration #         20
  pAp =  0.000032553700839091396  rzold =  0.000016800198069233624  alpha =  0.5160764409636485
 delta_qm =   0.213375E-03 delta_en =   0.307321E-01 tol =   0.100000E-03
 Iteration #         21
  pAp =  0.00001266625721756626  rzold =  0.00000961280273940838  alpha =  0.7589300117857086
 delta_qm =   0.858238E-04 delta_en =   0.497187E-02 tol =   0.100000E-03
 Iteration #         22
  pAp =  0.00001180806533233692  rzold =  0.0000054943296315247535  alpha =  0.4653031192568256
 delta_qm =   0.737366E-04 delta_en =   0.367004E-02 tol =   0.100000E-03
 Iteration #         23
  pAp =  0.00043784731871370495  rzold =  0.00001701733298164926  alpha =  0.03886590657136438
 delta_qm =   0.694194E-04 delta_en =   0.325286E-02 tol =   0.100000E-03
 Iteration #         24
  pAp =  0.0000049087223814383225  rzold =  0.0000020187661163909887  alpha =  0.41126100836842655
 delta_qm =   0.509604E-04 delta_en =   0.175295E-02 tol =   0.100000E-03
 Iteration #         25
  pAp =  0.0000017051013695896306  rzold =  6.095279697150563E-7  alpha =  0.35747315707203514
 delta_qm =   0.401923E-04 delta_en =   0.109041E-02 tol =   0.100000E-03
 Iteration #         26
  pAp =  0.000002088618764181488  rzold =  6.406354739735151E-7  alpha =  0.30672685937712274
 delta_qm =   0.235319E-04 delta_en =   0.373780E-03 tol =   0.100000E-03
 Iteration #         27
  pAp =  4.1473441778824223E-7  rzold =  2.247404999921694E-7  alpha =  0.5418901599503103
 delta_qm =   0.117390E-04 delta_en =   0.930173E-04 tol =   0.100000E-03
 Charges are converged, exit!

%%%% ELECTRONS %%%%%%%%%%%%%%%%%%%%%%%%%%%%%%%%%%%%%%%%%%%%%%%%%%%%%%%%%%%%%%%%%
 number of electrons        =         89
 total electronic charge    =     89.0000000
 number of spin components  =  1

%%%% BOUNDARY %%%%%%%%%%%%%%%%%%%%%%%%%%%%%%%%%%%%%%%%%%%%%%%%%%%%%%%%%%%%%%%%%%
 boundary mode              = electronic           
 boundary is built as a function of a smooth density
 function type              =  2 
 using the modified SCCS function with parameters 
 rhomax                     =      0.0050000 
 rhomin                     =      0.0001000 

%%%% DIELECTRIC %%%%%%%%%%%%%%%%%%%%%%%%%%%%%%%%%%%%%%%%%%%%%%%%%%%%%%%%%%%%%%%%%
 dielectric build on homogeneous background
 environment bulk permitt.  =    100.0000000 
 dielectric flags
 need gradient              =  F 
 need factor depend. sqrt   =  T 
 need gradient of logarithm =  T 

%%%% COMPUTE ELECTROSTATIC POTENTIAL %%%%%%%%%%%%%%%%%%%%%%%%%%%%%%%%%%%%%%%%%%%
 Warning: bad guess with residual norm =   0.149938E+06, reset to no guess
 Iteration #          1
  pAp =  1272.2380593762396  rzold =  1269.9185511231522  alpha =  0.998176828435533
 delta_qm =   0.809286E-01 delta_en =   0.442087E+04 tol =   0.100000E-03
 Iteration #          2
  pAp =  1486.08836954841  rzold =  47.969223034008074  alpha =  0.032278849641078126
 delta_qm =   0.715584E-01 delta_en =   0.345641E+04 tol =   0.100000E-03
 Iteration #          3
  pAp =  44.547881086952955  rzold =  5.18908469045369  alpha =  0.11648331107657224
 delta_qm =   0.731157E-01 delta_en =   0.360849E+04 tol =   0.100000E-03
 Iteration #          4
  pAp =  -2.817564384906639  rzold =  0.9646943979176783  alpha =  -0.3423859284584348
 delta_qm =   0.388055E-01 delta_en =   0.101646E+04 tol =   0.100000E-03
 Iteration #          5
  pAp =  2.1241913150553025  rzold =  -0.8644336487394731  alpha =  -0.4069471721368788
 delta_qm =   0.990953E-02 delta_en =   0.662841E+02 tol =   0.100000E-03
 Iteration #          6
  pAp =  0.6638358754135621  rzold =  0.20946093697688475  alpha =  0.31553120994913536
 delta_qm =   0.312531E-02 delta_en =   0.659311E+01 tol =   0.100000E-03
 Iteration #          7
  pAp =  0.03704562144309782  rzold =  0.014277241409741463  alpha =  0.385396191333201
 delta_qm =   0.110117E-02 delta_en =   0.818489E+00 tol =   0.100000E-03
 Iteration #          8
  pAp =  0.004111588303488769  rzold =  0.0017999893300176628  alpha =  0.4377844271252387
 delta_qm =   0.746950E-03 delta_en =   0.376606E+00 tol =   0.100000E-03
 Iteration #          9
  pAp =  0.0010599280483432115  rzold =  0.0003630362126614012  alpha =  0.3425102423026433
 delta_qm =   0.701522E-03 delta_en =   0.332190E+00 tol =   0.100000E-03
 Iteration #         10
  pAp =  0.00026747580288747497  rzold =  0.00013453587457744453  alpha =  0.5029833469984676
 delta_qm =   0.577117E-03 delta_en =   0.224818E+00 tol =   0.100000E-03
 Iteration #         11
  pAp =  0.0000840974840706305  rzold =  0.00008180914681814536  alpha =  0.9727894683441035
 delta_qm =   0.285768E-03 delta_en =   0.551228E-01 tol =   0.100000E-03
 Iteration #         12
  pAp =  0.00010611712409401324  rzold =  0.00006236345303042547  alpha =  0.5876851032560522
 delta_qm =   0.170127E-03 delta_en =   0.195366E-01 tol =   0.100000E-03
 Iteration #         13
  pAp =  0.00005979973098620403  rzold =  0.00001914849962384741  alpha =  0.32021046429565087
 delta_qm =   0.209656E-03 delta_en =   0.296702E-01 tol =   0.100000E-03
 Iteration #         14
  pAp =  0.0013824204637957937  rzold =  0.00006245888238785051  alpha =  0.04518081439300562
 delta_qm =   0.159470E-03 delta_en =   0.171657E-01 tol =   0.100000E-03
 Iteration #         15
  pAp =  0.000016230079041199162  rzold =  0.00000844304420061163  alpha =  0.5202096785344931
 delta_qm =   0.164837E-03 delta_en =   0.183406E-01 tol =   0.100000E-03
 Iteration #         16
  pAp =  0.000010924019354836841  rzold =  0.000011535813841139446  alpha =  1.0560045223676502
 delta_qm =   0.217560E-03 delta_en =   0.319492E-01 tol =   0.100000E-03
 Iteration #         17
  pAp =  0.000008352761027047484  rzold =  0.000020612860002419608  alpha =  2.4677899841348387
 delta_qm =   0.349025E-03 delta_en =   0.822274E-01 tol =   0.100000E-03
 Iteration #         18
  pAp =  0.00009639334179436974  rzold =  0.0000846906499104862  alpha =  0.8785943959817453
 delta_qm =   0.413435E-03 delta_en =   0.115377E+00 tol =   0.100000E-03
 Iteration #         19
  pAp =  0.00015883075926767686  rzold =  0.00008159222432344305  alpha =  0.5137054352673338
 delta_qm =   0.254899E-03 delta_en =   0.438570E-01 tol =   0.100000E-03
 Iteration #         20
  pAp =  0.00005231368431267718  rzold =  0.000026785014381774924  alpha =  0.5120077993681685
 delta_qm =   0.213049E-03 delta_en =   0.306383E-01 tol =   0.100000E-03
 Iteration #         21
  pAp =  0.000008354968134237319  rzold =  0.000007414449319644079  alpha =  0.8874299938094146
 delta_qm =   0.933265E-04 delta_en =   0.587913E-02 tol =   0.100000E-03
 Iteration #         22
  pAp =  0.00000776238513710831  rzold =  0.0000043764685847403906  alpha =  0.5638046177093886
 delta_qm =   0.583159E-04 delta_en =   0.229550E-02 tol =   0.100000E-03
 Iteration #         23
  pAp =  0.0000052499307430271065  rzold =  0.0000018083605973136212  alpha =  0.34445418155572116
 delta_qm =   0.471449E-04 delta_en =   0.150028E-02 tol =   0.100000E-03
 Iteration #         24
  pAp =  0.0000054783585814782275  rzold =  0.0000011934908170146477  alpha =  0.21785554911460497
 delta_qm =   0.396162E-04 delta_en =   0.105937E-02 tol =   0.100000E-03
 Iteration #         25
  pAp =  0.0000022551405906603463  rzold =  3.526225050027455E-7  alpha =  0.15636386771766245
 delta_qm =   0.344726E-04 delta_en =   0.802143E-03 tol =   0.100000E-03
 Iteration #         26
  pAp =  0.000009895375599960814  rzold =  0.0000012110972845152114  alpha =  0.12239022887822544
 delta_qm =   0.211424E-04 delta_en =   0.301724E-03 tol =   0.100000E-03
 Iteration #         27
  pAp =  2.5824780949027037E-7  rzold =  1.5299053356123865E-7  alpha =  0.5924175460121479
 delta_qm =   0.103895E-04 delta_en =   0.728603E-04 tol =   0.100000E-03
 Charges are converged, exit!

%%%% ELECTRONS %%%%%%%%%%%%%%%%%%%%%%%%%%%%%%%%%%%%%%%%%%%%%%%%%%%%%%%%%%%%%%%%%
 number of electrons        =         89
 total electronic charge    =     89.0000000
 number of spin components  =  1

%%%% BOUNDARY %%%%%%%%%%%%%%%%%%%%%%%%%%%%%%%%%%%%%%%%%%%%%%%%%%%%%%%%%%%%%%%%%%
 boundary mode              = electronic           
 boundary is built as a function of a smooth density
 function type              =  2 
 using the modified SCCS function with parameters 
 rhomax                     =      0.0050000 
 rhomin                     =      0.0001000 

%%%% DIELECTRIC %%%%%%%%%%%%%%%%%%%%%%%%%%%%%%%%%%%%%%%%%%%%%%%%%%%%%%%%%%%%%%%%%
 dielectric build on homogeneous background
 environment bulk permitt.  =    100.0000000 
 dielectric flags
 need gradient              =  F 
 need factor depend. sqrt   =  T 
 need gradient of logarithm =  T 
