
     Program PWSCF v.6.1 (svn rev. 13369) starts on  8Nov2017 at 15:34:18 

     This program is part of the open-source Quantum ESPRESSO suite
     for quantum simulation of materials; please cite
         "P. Giannozzi et al., J. Phys.:Condens. Matter 21 395502 (2009);
          URL http://www.quantum-espresso.org", 
     in publications or presentations arising from this work. More details at
     http://www.quantum-espresso.org/quote

     Parallel version (MPI), running on     1 processors
     Reading input from neutral.in

     Current dimensions of program PWSCF are:
     Max number of different atomic species (ntypx) = 10
     Max number of k-points (npk) =  40000
     Max angular momentum in pseudopotentials (lmaxx) =  3
               file C.pbe-rrkjus.UPF: wavefunction(s)  2S 2P renormalized
               file O.pbe-rrkjus.UPF: wavefunction(s)  2S renormalized

     gamma-point specific algorithms are used

     Subspace diagonalization in iterative solution of the eigenvalue problem:
     a serial algorithm will be used

 
     G-vector sticks info
     --------------------
     sticks:   dense  smooth     PW     G-vecs:    dense   smooth      PW
     Sum        2357    1099    269               366833   116965   14571
 


     bravais-lattice index     =            8
     lattice parameter (alat)  =      10.6881  a.u.
     unit-cell volume          =    4181.1215 (a.u.)^3
     number of atoms/cell      =           10
     number of atomic types    =            3
     number of electrons       =        90.00
     number of Kohn-Sham states=           80
     kinetic-energy cutoff     =      35.0000  Ry
     charge density cutoff     =     300.0000  Ry
     convergence threshold     =      5.0E-02
     mixing beta               =       0.7000
     number of iterations used =            8  plain     mixing
     Exchange-correlation      = PBE ( 1  4  3  4 0 0)
 

     Environ Module
     ==============

     Plese cite
         O. Andreussi, I. Dabo and N. Marzari, J. Chem. Phys. 136, 064102 (2012)         
     in publications or presentations arising from this work.

     compensation onset threshold      =               0.1000E+03 
     static permittivity               =                   100.00 
     epsilon calculation mode          =                     full 

     Electrostatic Setup
     -------------------
     electrostatic problem to solve    = generalized              
     numerical solver adopted          = cg                       
     type of auxiliary density adopted = none                     
     type of core tool for poisson     = fft                      
     type of core tool for s(r) deriv  = analytic                 



     celldm(1)=  10.688100  celldm(2)=   0.866025  celldm(3)=   3.954220
     celldm(4)=   0.000000  celldm(5)=   0.000000  celldm(6)=   0.000000

     crystal axes: (cart. coord. in units of alat)
               a(1) = (   1.000000   0.000000   0.000000 )  
               a(2) = (   0.000000   0.866025   0.000000 )  
               a(3) = (   0.000000   0.000000   3.954220 )  

     reciprocal axes: (cart. coord. in units 2 pi/alat)
               b(1) = (  1.000000  0.000000  0.000000 )  
               b(2) = (  0.000000  1.154701  0.000000 )  
               b(3) = (  0.000000  0.000000  0.252894 )  


     PseudoPot. # 1 for C  read from file:
     /home/andreo/PWSCF/espresso-6.1-Environ-1.0/Environ/tests/../..//pseudo/C.pbe-rrkjus.UPF
     MD5 check sum: 00fb224312de0c5b6853bd333518df6f
     Pseudo is Ultrasoft, Zval =  4.0
     Generated by new atomic code, or converted to UPF format
     Using radial grid of  627 points,  4 beta functions with: 
                l(1) =   0
                l(2) =   0
                l(3) =   1
                l(4) =   1
     Q(r) pseudized with 0 coefficients 


     PseudoPot. # 2 for O  read from file:
     /home/andreo/PWSCF/espresso-6.1-Environ-1.0/Environ/tests/../..//pseudo/O.pbe-rrkjus.UPF
     MD5 check sum: 390ba29e75625707450f3bd3f0eb6be9
     Pseudo is Ultrasoft, Zval =  6.0
     Generated by new atomic code, or converted to UPF format
     Using radial grid of 1269 points,  4 beta functions with: 
                l(1) =   0
                l(2) =   0
                l(3) =   1
                l(4) =   1
     Q(r) pseudized with 0 coefficients 


     PseudoPot. # 3 for Pt read from file:
     /home/andreo/PWSCF/espresso-6.1-Environ-1.0/Environ/tests/../..//pseudo/Pt.pbe-n-rrkjus_psl.0.1.UPF
     MD5 check sum: df5be8f5ed4f66d4aed38ca70ec8d507
     Pseudo is Ultrasoft + core correction, Zval = 10.0
     Generated using "atomic" code by A. Dal Corso  v.5.0.2 svn rev. 9415
     Using radial grid of 1277 points,  6 beta functions with: 
                l(1) =   0
                l(2) =   0
                l(3) =   1
                l(4) =   1
                l(5) =   2
                l(6) =   2
     Q(r) pseudized with 0 coefficients 


     atomic species   valence    mass     pseudopotential
        C              4.00     1.00000     C ( 1.00)
        O              6.00     1.00000     O ( 1.00)
        Pt            10.00     1.00000     Pt( 1.00)

     No symmetry found



   Cartesian axes

     site n.     atom                  positions (alat units)
         1           C   tau(   1) = (   0.4991611   0.4347567   1.2070461  )
         2           O   tau(   2) = (   0.4991542   0.4322212   1.4109013  )
         3           Pt  tau(   3) = (   0.7542339   0.0091745   0.8413229  )
         4           Pt  tau(   4) = (   0.2441023   0.0091745   0.8413226  )
         5           Pt  tau(   5) = (   0.0000034   0.4416918   0.8391348  )
         6           Pt  tau(   6) = (   0.4991682   0.4417635   0.8776299  )
         7           Pt  tau(   7) = (   0.0000038   0.7300598   0.4308181  )
         8           Pt  tau(   8) = (   0.4991683   0.7202168   0.4447460  )
         9           Pt  tau(   9) = (   0.2524172   0.2949237   0.4386572  )
        10           Pt  tau(  10) = (   0.7459196   0.2949237   0.4386575  )

     number of k points=     1  Marzari-Vanderbilt smearing, width (Ry)=  0.0300
                       cart. coord. in units 2pi/alat
        k(    1) = (   0.0000000   0.0000000   0.0000000), wk =   2.0000000

     Dense  grid:   183417 G-vectors     FFT dimensions: (  60,  54, 240)

     Smooth grid:    58483 G-vectors     FFT dimensions: (  45,  36, 160)

     Estimated max dynamical RAM per process >     231.32MB

     Initial potential from superposition of free atoms
     Check: negative starting charge=   -0.003086

     starting charge   89.99859, renormalised to   90.00000

     negative rho (up, down):  3.086E-03 0.000E+00
     Starting wfc are   80 randomized atomic wfcs

     total cpu time spent up to now is        6.6 secs

     per-process dynamical memory:   339.3 Mb

     Self-consistent Calculation

     iteration #  1     ecut=    35.00 Ry     beta=0.70
     Davidson diagonalization with overlap
     ethr =  1.00E-02,  avg # of iterations =  8.0

     negative rho (up, down):  2.238E-03 0.000E+00

     add environment contribution to local potential
     polarization accuracy = 6.4E-05, # of iterations =  20

     total cpu time spent up to now is       12.6 secs

     total energy              =    -623.07788607 Ry
     Harris-Foulkes estimate   =    -624.45760611 Ry
     estimated scf accuracy    <       1.80056586 Ry
     electrostatic embedding   =       0.00000000 Ry
     correction to one-el term =       0.00000000 Ry

     iteration #  2     ecut=    35.00 Ry     beta=0.70
     Davidson diagonalization with overlap
     ethr =  2.00E-03,  avg # of iterations =  6.0

     negative rho (up, down):  1.506E-02 0.000E+00

     add environment contribution to local potential
     polarization accuracy = 6.5E-05, # of iterations =  31

     total cpu time spent up to now is       19.5 secs

     total energy              =    -621.34583923 Ry
     Harris-Foulkes estimate   =    -657.02707255 Ry
     estimated scf accuracy    <      17.56905488 Ry
     electrostatic embedding   =       0.00004969 Ry
     correction to one-el term =      30.83412317 Ry

     iteration #  3     ecut=    35.00 Ry     beta=0.70
     Davidson diagonalization with overlap
     ethr =  2.00E-03,  avg # of iterations =  6.0

     negative rho (up, down):  9.979E-03 0.000E+00

     add environment contribution to local potential
     polarization accuracy = 2.5E-05, # of iterations =  25

     total cpu time spent up to now is       25.7 secs

     total energy              =    -623.62181668 Ry
     Harris-Foulkes estimate   =    -652.79446883 Ry
     estimated scf accuracy    <       5.73519524 Ry
     electrostatic embedding   =      -0.02591445 Ry
     correction to one-el term =      28.32982372 Ry

     iteration #  4     ecut=    35.00 Ry     beta=0.70
     Davidson diagonalization with overlap
     ethr =  2.00E-03,  avg # of iterations =  1.0

     negative rho (up, down):  7.435E-03 0.000E+00

     add environment contribution to local potential
     polarization accuracy = 9.8E-05, # of iterations =  22

     total cpu time spent up to now is       31.0 secs

     total energy              =    -623.72011915 Ry
     Harris-Foulkes estimate   =    -652.28557553 Ry
     estimated scf accuracy    <       3.95318214 Ry
     electrostatic embedding   =      -0.02063607 Ry
     correction to one-el term =      27.94471107 Ry

     iteration #  5     ecut=    35.00 Ry     beta=0.70
     Davidson diagonalization with overlap
     ethr =  2.00E-03,  avg # of iterations =  1.0

     negative rho (up, down):  7.150E-03 0.000E+00

     add environment contribution to local potential
     polarization accuracy = 4.8E-05, # of iterations =  22

     total cpu time spent up to now is       36.4 secs

     total energy              =    -624.03617377 Ry
     Harris-Foulkes estimate   =    -652.27336037 Ry
     estimated scf accuracy    <       0.82553337 Ry
     electrostatic embedding   =      -0.01170514 Ry
     correction to one-el term =      28.06767128 Ry

     iteration #  6     ecut=    35.00 Ry     beta=0.70
     Davidson diagonalization with overlap
     ethr =  9.17E-04,  avg # of iterations =  1.0

     negative rho (up, down):  5.540E-03 0.000E+00

     add environment contribution to local potential
     polarization accuracy = 2.3E-05, # of iterations =  22

     total cpu time spent up to now is       41.8 secs

     total energy              =    -624.12623334 Ry
     Harris-Foulkes estimate   =    -651.55661733 Ry
     estimated scf accuracy    <       0.20929931 Ry
     electrostatic embedding   =      -0.01098241 Ry
     correction to one-el term =      27.41115882 Ry

     iteration #  7     ecut=    35.00 Ry     beta=0.70
     Davidson diagonalization with overlap
     ethr =  2.33E-04,  avg # of iterations =  6.0

     negative rho (up, down):  4.390E-03 0.000E+00

     add environment contribution to local potential
     polarization accuracy = 9.1E-05, # of iterations =  21

     total cpu time spent up to now is       47.2 secs

     total energy              =    -624.13155811 Ry
     Harris-Foulkes estimate   =    -651.54150288 Ry
     estimated scf accuracy    <       0.09367765 Ry
     electrostatic embedding   =      -0.01092373 Ry
     correction to one-el term =      27.40355488 Ry

     iteration #  8     ecut=    35.00 Ry     beta=0.70
     Davidson diagonalization with overlap
     ethr =  1.04E-04,  avg # of iterations =  1.0

     negative rho (up, down):  3.037E-03 0.000E+00

     total cpu time spent up to now is       50.4 secs

     End of self-consistent calculation

          k = 0.0000 0.0000 0.0000 (  7286 PWs)   bands (ev):

   -29.1329 -15.1775 -13.3482 -12.5930 -11.8832 -11.8510 -11.7820 -11.0633
   -10.9089 -10.0980  -9.9378  -9.8361  -9.6144  -9.5245  -9.4175  -9.3351
    -8.6792  -8.6362  -8.5966  -8.4002  -8.3085  -8.2477  -8.1818  -8.1772
    -8.1428  -7.9982  -7.9163  -7.8773  -7.7855  -7.5205  -7.4317  -6.6538
    -6.5117  -6.4199  -6.0745  -6.0276  -5.9308  -5.7842  -5.7247  -5.5307
    -5.3237  -5.2382  -5.0908  -5.0622  -5.0596  -4.9973  -4.8050  -3.7852
    -3.3754  -3.2875  -2.8602  -2.2796  -2.1688  -1.2283  -0.8411  -0.7476
    -0.3984  -0.0948   0.5499   0.6423   0.8919   1.2678   2.2290   2.3943
     2.4413   2.7873   2.9898   3.3035   3.5696   3.6186   4.0374   4.1739
     4.4270   4.5623   4.9116   5.0856   5.2810   5.3324   5.4248   5.5485

     the Fermi energy is    -4.9122 ev

!    total energy              =    -624.11168317 Ry
     Harris-Foulkes estimate   =    -651.41491836 Ry
     estimated scf accuracy    <       0.03357463 Ry

     The total energy is the sum of the following terms:

     one-electron contribution =   -3991.50900310 Ry
     hartree contribution      =    2030.01058509 Ry
     xc contribution           =    -263.08306039 Ry
     ewald contribution        =    1573.20467954 Ry
     smearing contrib. (-TS)   =      -0.00669949 Ry
     electrostatic embedding   =      -0.01123634 Ry
     correction to one-el term =      27.28305153 Ry

     convergence has been achieved in   8 iterations

     negative rho (up, down):  3.037E-03 0.000E+00

     Forces acting on atoms (cartesian axes, Ry/au):

     atom    1 type  1   force =     0.00006616   -0.00790376    0.04138622
     atom    2 type  2   force =    -0.00017848    0.00150084    0.06511645
     atom    3 type  3   force =    -0.00913386    0.00294927    0.00970868
     atom    4 type  3   force =     0.01015510    0.00308861    0.01023317
     atom    5 type  3   force =    -0.00162579    0.01987729   -0.01186918
     atom    6 type  3   force =     0.00058996    0.01908928    0.03316673
     atom    7 type  3   force =    -0.00148763   -0.00455656   -0.03974532
     atom    8 type  3   force =     0.00026892   -0.00393574   -0.02041807
     atom    9 type  3   force =     0.02470893   -0.01526669   -0.04397993
     atom   10 type  3   force =    -0.02336330   -0.01484254   -0.04359874

     Total force =     0.126114     Total SCF correction =     0.321786
     SCF correction compared to forces is large: reduce conv_thr to get better values

     Writing output data file pwscf.save
 
     init_run     :      6.01s CPU      6.26s WALL (       1 calls)
     electrons    :     40.98s CPU     44.43s WALL (       1 calls)
     forces       :      4.55s CPU      4.78s WALL (       1 calls)

     Called by init_run:
     wfcinit      :      0.41s CPU      0.42s WALL (       1 calls)
     potinit      :      2.08s CPU      2.10s WALL (       1 calls)

     Called by electrons:
     c_bands      :      9.56s CPU      9.61s WALL (       8 calls)
     sum_band     :      6.66s CPU      8.02s WALL (       8 calls)
     v_of_rho     :      3.07s CPU      3.11s WALL (       9 calls)
     newd         :      4.07s CPU      5.50s WALL (       9 calls)
     mix_rho      :      0.31s CPU      0.31s WALL (       8 calls)

     Called by c_bands:
     init_us_2    :      0.07s CPU      0.08s WALL (      17 calls)
     regterg      :      9.00s CPU      9.04s WALL (       8 calls)

     Called by sum_band:
     sum_band:bec :      0.00s CPU      0.00s WALL (       8 calls)
     addusdens    :      4.62s CPU      5.97s WALL (       8 calls)

     Called by *egterg:
     h_psi        :      7.26s CPU      7.26s WALL (      39 calls)
     s_psi        :      0.37s CPU      0.36s WALL (      39 calls)
     g_psi        :      0.08s CPU      0.07s WALL (      30 calls)
     rdiaghg      :      0.31s CPU      0.32s WALL (      38 calls)

     Called by h_psi:
     h_psi:pot    :      7.21s CPU      7.22s WALL (      39 calls)
     h_psi:calbec :      0.37s CPU      0.37s WALL (      39 calls)
     vloc_psi     :      6.49s CPU      6.49s WALL (      39 calls)
     add_vuspsi   :      0.35s CPU      0.36s WALL (      39 calls)

     General routines
     calbec       :      0.60s CPU      0.60s WALL (      51 calls)
     fft          :      8.42s CPU      8.47s WALL (     588 calls)
     ffts         :      0.07s CPU      0.07s WALL (      17 calls)
     fftw         :      6.54s CPU      6.59s WALL (    2004 calls)
     interpolate  :      0.37s CPU      0.38s WALL (      17 calls)
     davcio       :      0.00s CPU      0.00s WALL (       1 calls)
 
     Parallel routines
     fft_scatter  :      2.04s CPU      2.06s WALL (    2609 calls)
 
     Environ routines
     calc_eelect  :      0.01s CPU      0.01s WALL (      16 calls)
     calc_velect  :     15.03s CPU     15.06s WALL (      14 calls)
     dielectric   :      0.21s CPU      0.21s WALL (      10 calls)
     calc_felect  :      0.20s CPU      0.20s WALL (       1 calls)
 
     PWSCF        :    51.93s CPU        57.96s WALL

 
   This run was terminated on:  15:35:16   8Nov2017            

=------------------------------------------------------------------------------=
   JOB DONE.
=------------------------------------------------------------------------------=

%%%% IONS %%%%%%%%%%%%%%%%%%%%%%%%%%%%%%%%%%%%%%%%%%%%%%%%%%%%%%%%%%%%%%%%%%%%%%
 number of ions             =         10
 ionic center of charge     =      0.3882415     0.3750182     0.7201831
 total ionic charge         =    -90.0000000
 ionic dipole               =      0.0000000     0.0000000     0.0000000
 ionic quadrupole (pc)      =   -730.5101255  -614.6110457  -876.7220256
 ionic quadrupole (gauss)   =   -741.7601255  -625.8610457  -887.9720256
 ion   1 type =  1 coordinates =      5.3350841     4.6467234    12.9010299
 ion   2 type =  2 coordinates =      5.3350096     4.6196233    15.0798543
 ion   3 type =  3 coordinates =      8.0613271     0.0980580     8.9921429
 ion   4 type =  3 coordinates =      2.6089894     0.0980583     8.9921406
 ion   5 type =  3 coordinates =      0.0000366     4.7208463     8.9687569
 ion   6 type =  3 coordinates =      5.3351596     4.7216127     9.3801964
 ion   7 type =  3 coordinates =      0.0000411     7.8029520     4.6046265
 ion   8 type =  3 coordinates =      5.3351612     7.6977491     4.7534894
 ion   9 type =  3 coordinates =      2.6978606     3.1521739     4.6884123
 ion  10 type =  3 coordinates =      7.9724637     3.1521745     4.6884152

%%%% SYSTEM %%%%%%%%%%%%%%%%%%%%%%%%%%%%%%%%%%%%%%%%%%%%%%%%%%%%%%%%%%%%%%%%%%%%
 system is built from all present ionic types
 system defined dimension   =  0 
 system defined axis        =  3 
 system center              =      0.3882415     0.3750182     0.7201831 
 system width               =      1.5145225 

%%%% ELECTRONS %%%%%%%%%%%%%%%%%%%%%%%%%%%%%%%%%%%%%%%%%%%%%%%%%%%%%%%%%%%%%%%%%
 number of electrons        =         90
 total electronic charge    =     90.0000000
 number of spin components  =  1

%%%% BOUNDARY %%%%%%%%%%%%%%%%%%%%%%%%%%%%%%%%%%%%%%%%%%%%%%%%%%%%%%%%%%%%%%%%%%
 boundary mode              = full                 
 boundary is built as a function of a smooth density
 function type              =  2 
 using the modified SCCS function with parameters 
 rhomax                     =      0.0050000 
 rhomin                     =      0.0001000 
 volume of the QM region    =   1646.7575091 
 surface of the QM region   =    250.7132398 

%%%% DIELECTRIC %%%%%%%%%%%%%%%%%%%%%%%%%%%%%%%%%%%%%%%%%%%%%%%%%%%%%%%%%%%%%%%%%
 dielectric build on homogeneous background
 environment bulk permitt.  =    100.0000000 
 dielectric flags
 need gradient              =  F 
 need factor depend. sqrt   =  T 
 need gradient of logarithm =  T 

%%%% COMPUTE ELECTROSTATIC POTENTIAL %%%%%%%%%%%%%%%%%%%%%%%%%%%%%%%%%%%%%%%%%%%
 Iteration #          1
  pAp =    1284.13180084727       rzold =    1283.80134598896       alpha = 
  0.999742662818499     
 delta_qm =   0.228452E-01 delta_en =   0.405834E+03 tol =   0.100000E-03
 Iteration #          2
  pAp =    29.4380780525335       rzold =    2.19410317133737       alpha = 
  7.453282674982720E-002
 delta_qm =   0.250312E-01 delta_en =   0.487215E+03 tol =   0.100000E-03
 Iteration #          3
  pAp =    19.0739276162628       rzold =    1.42878243168619       alpha = 
  7.490761527625715E-002
 delta_qm =   0.132759E-01 delta_en =   0.137052E+03 tol =   0.100000E-03
 Iteration #          4
  pAp =   3.922320598113554E-002  rzold =   3.199435387646077E-002  alpha = 
  0.815699611394553     
 delta_qm =   0.183107E-01 delta_en =   0.260715E+03 tol =   0.100000E-03
 Iteration #          5
  pAp =   0.221719833683771       rzold =   6.596926291290339E-002  alpha = 
  0.297534333383059     
 delta_qm =   0.132456E-01 delta_en =   0.136426E+03 tol =   0.100000E-03
 Iteration #          6
  pAp =  -0.865046528696265       rzold =  -0.203927310878915       alpha = 
  0.235741435996812     
 delta_qm =   0.285875E-02 delta_en =   0.635491E+01 tol =   0.100000E-03
 Iteration #          7
  pAp =   1.785414372898163E-002  rzold =   7.613748619137412E-003  alpha = 
  0.426441544030949     
 delta_qm =   0.733856E-03 delta_en =   0.418773E+00 tol =   0.100000E-03
 Iteration #          8
  pAp =   1.463424716246464E-003  rzold =   5.895307649127912E-004  alpha = 
  0.402843247328006     
 delta_qm =   0.353341E-03 delta_en =   0.970833E-01 tol =   0.100000E-03
 Iteration #          9
  pAp =   2.948182538105611E-004  rzold =   1.035810618174532E-004  alpha = 
  0.351338699278812     
 delta_qm =   0.299356E-03 delta_en =   0.696837E-01 tol =   0.100000E-03
 Iteration #         10
  pAp =   3.953639643374847E-005  rzold =   1.908195023236639E-005  alpha = 
  0.482642626885387     
 delta_qm =   0.263146E-03 delta_en =   0.538456E-01 tol =   0.100000E-03
 Iteration #         11
  pAp =   1.433382340031597E-005  rzold =   1.084726931957765E-005  alpha = 
  0.756760357417166     
 delta_qm =   0.225901E-03 delta_en =   0.396819E-01 tol =   0.100000E-03
 Iteration #         12
  pAp =   8.089665982031917E-006  rzold =   1.193548787978835E-005  alpha = 
   1.47539934359446     
 delta_qm =   0.276670E-03 delta_en =   0.595225E-01 tol =   0.100000E-03
 Iteration #         13
  pAp =   3.006900192706597E-005  rzold =   1.747766391156662E-005  alpha = 
  0.581251880390299     
 delta_qm =   0.333503E-03 delta_en =   0.864879E-01 tol =   0.100000E-03
 Iteration #         14
  pAp =   3.906143256576995E-004  rzold =   3.206849072773083E-005  alpha = 
  8.209757968742004E-002
 delta_qm =   0.291758E-03 delta_en =   0.661913E-01 tol =   0.100000E-03
 Iteration #         15
  pAp =   1.213888182083926E-004  rzold =   3.661203585280734E-005  alpha = 
  0.301609624289728     
 delta_qm =   0.283702E-03 delta_en =   0.625867E-01 tol =   0.100000E-03
 Iteration #         16
  pAp =   1.432589939651623E-005  rzold =   1.528711204216995E-005  alpha = 
   1.06709614656986     
 delta_qm =   0.189754E-03 delta_en =   0.279987E-01 tol =   0.100000E-03
 Iteration #         17
  pAp =   1.599106466494845E-005  rzold =   1.572371280730435E-005  alpha = 
  0.983281172126699     
 delta_qm =   0.980098E-04 delta_en =   0.746957E-02 tol =   0.100000E-03
 Iteration #         18
  pAp =   7.570181004401735E-006  rzold =   4.703722831952043E-006  alpha = 
  0.621348793274167     
 delta_qm =   0.427466E-04 delta_en =   0.142088E-02 tol =   0.100000E-03
 Iteration #         19
  pAp =   6.177547541696541E-007  rzold =   3.833231831027515E-007  alpha = 
  0.620510292337596     
 delta_qm =   0.187589E-04 delta_en =   0.273633E-03 tol =   0.100000E-03
 Iteration #         20
  pAp =   8.196236896198116E-008  rzold =   4.799529755578822E-008  alpha = 
  0.585577237012893     
 delta_qm =   0.905243E-05 delta_en =   0.637215E-04 tol =   0.100000E-03
 Charges are converged, EXIT

%%%% ELECTRONS %%%%%%%%%%%%%%%%%%%%%%%%%%%%%%%%%%%%%%%%%%%%%%%%%%%%%%%%%%%%%%%%%
 number of electrons        =         90
 total electronic charge    =     90.0000000
 number of spin components  =  1

%%%% BOUNDARY %%%%%%%%%%%%%%%%%%%%%%%%%%%%%%%%%%%%%%%%%%%%%%%%%%%%%%%%%%%%%%%%%%
 boundary mode              = full                 
 boundary is built as a function of a smooth density
 function type              =  2 
 using the modified SCCS function with parameters 
 rhomax                     =      0.0050000 
 rhomin                     =      0.0001000 
 volume of the QM region    =   1628.1524236 
 surface of the QM region   =    336.5350908 

%%%% DIELECTRIC %%%%%%%%%%%%%%%%%%%%%%%%%%%%%%%%%%%%%%%%%%%%%%%%%%%%%%%%%%%%%%%%%
 dielectric build on homogeneous background
 environment bulk permitt.  =    100.0000000 
 dielectric flags
 need gradient              =  F 
 need factor depend. sqrt   =  T 
 need gradient of logarithm =  T 

%%%% COMPUTE ELECTROSTATIC POTENTIAL %%%%%%%%%%%%%%%%%%%%%%%%%%%%%%%%%%%%%%%%%%%
 Warning: bad guess with residual norm =   0.167609E+05, reset to no guess
 Iteration #          1
  pAp =    1277.02975262011       rzold =    1275.87284229670       alpha = 
  0.999094061574500     
 delta_qm =   0.160332E+00 delta_en =   0.199894E+05 tol =   0.100000E-03
 Iteration #          2
  pAp =    1618.27585295308       rzold =    41.9881844757061       alpha = 
  2.594624667919540E-002
 delta_qm =   0.375659E-01 delta_en =   0.109735E+04 tol =   0.100000E-03
 Iteration #          3
  pAp =   0.768388139513168       rzold =  -1.180090072959725E-002  alpha = 
 -1.535799438168581E-002
 delta_qm =   0.354989E-01 delta_en =   0.979911E+03 tol =   0.100000E-03
 Iteration #          4
  pAp =   5.854547160383663E-003  rzold =   1.209442055572025E-002  alpha = 
   2.06581657374977     
 delta_qm =   0.892770E-02 delta_en =   0.619777E+02 tol =   0.100000E-03
 Iteration #          5
  pAp =   8.742399847262454E-002  rzold =   2.388089988802066E-002  alpha = 
  0.273161835482720     
 delta_qm =   0.285021E-02 delta_en =   0.631700E+01 tol =   0.100000E-03
 Iteration #          6
  pAp =   4.485926180345713E-003  rzold =   2.103473945842862E-003  alpha = 
  0.468905162786418     
 delta_qm =   0.639839E-02 delta_en =   0.318344E+02 tol =   0.100000E-03
 Iteration #          7
  pAp =  -2.139881466963671E-004  rzold =   1.155719055666471E-003  alpha = 
  -5.40085548432899     
 delta_qm =   0.506909E-01 delta_en =   0.199809E+04 tol =   0.100000E-03
 Iteration #          8
  pAp =    1.80193090048641       rzold =   0.100003794026727       alpha = 
  5.549812925663922E-002
 delta_qm =   0.169521E-02 delta_en =   0.223461E+01 tol =   0.100000E-03
 Iteration #          9
  pAp =   1.391371204893992E-003  rzold =   4.517400683340983E-004  alpha = 
  0.324672572455973     
 delta_qm =   0.151360E-02 delta_en =   0.178147E+01 tol =   0.100000E-03
 Iteration #         10
  pAp =   1.732090526933118E-004  rzold =   9.815821863485484E-005  alpha = 
  0.566703743877961     
 delta_qm =   0.155311E-02 delta_en =   0.187569E+01 tol =   0.100000E-03
 Iteration #         11
  pAp =   9.300024627573448E-005  rzold =   1.088717959760700E-004  alpha = 
   1.17066137280194     
 delta_qm =   0.179881E-02 delta_en =   0.251610E+01 tol =   0.100000E-03
 Iteration #         12
  pAp =   1.968551049949239E-004  rzold =   2.508013405913881E-004  alpha = 
   1.27404031812056     
 delta_qm =   0.208789E-02 delta_en =   0.338976E+01 tol =   0.100000E-03
 Iteration #         13
  pAp =   9.839586820142496E-002  rzold =   7.773098044307472E-003  alpha = 
  7.899821594536123E-002
 delta_qm =   0.439116E-02 delta_en =   0.149939E+02 tol =   0.100000E-03
 Iteration #         14
  pAp =   1.133987947151217E-003  rzold =   1.805875301373630E-003  alpha = 
   1.59249955514106     
 delta_qm =   0.106802E-01 delta_en =   0.886976E+02 tol =   0.100000E-03
 Iteration #         15
  pAp =   7.230796944473004E-003  rzold =   9.683074139915322E-003  alpha = 
   1.33914341866795     
 delta_qm =   0.368156E-01 delta_en =   0.105395E+04 tol =   0.100000E-03
 Iteration #         16
  pAp =  -0.104441034760734       rzold =   5.476362570584063E-002  alpha = 
 -0.524349704417423     
 delta_qm =   0.169542E-01 delta_en =   0.223518E+03 tol =   0.100000E-03
 Iteration #         17
  pAp =   4.366189797218633E-002  rzold =   1.746553218780206E-002  alpha = 
  0.400017704198934     
 delta_qm =   0.413712E-02 delta_en =   0.133092E+02 tol =   0.100000E-03
 Iteration #         18
  pAp =   3.312342009905731E-003  rzold =   1.731945975133948E-003  alpha = 
  0.522876553796218     
 delta_qm =   0.221524E-02 delta_en =   0.381591E+01 tol =   0.100000E-03
 Iteration #         19
  pAp =   6.330129794652193E-004  rzold =   3.035374786278148E-004  alpha = 
  0.479512250892942     
 delta_qm =   0.159220E-02 delta_en =   0.197131E+01 tol =   0.100000E-03
 Iteration #         20
  pAp =   2.246927466089191E-004  rzold =   9.752103873771185E-005  alpha = 
  0.434019523146640     
 delta_qm =   0.178538E-02 delta_en =   0.247865E+01 tol =   0.100000E-03
 Iteration #         21
  pAp =   3.648313112685065E-004  rzold =  -8.919652651130582E-005  alpha = 
 -0.244487037587789     
 delta_qm =   0.110846E-02 delta_en =   0.955432E+00 tol =   0.100000E-03
 Iteration #         22
  pAp =   4.445096806722850E-005  rzold =   4.431956340604674E-005  alpha = 
  0.997043829034656     
 delta_qm =   0.722716E-03 delta_en =   0.406155E+00 tol =   0.100000E-03
 Iteration #         23
  pAp =   1.176411300287026E-003  rzold =   5.627732381128341E-005  alpha = 
  4.783813603078500E-002
 delta_qm =   0.633099E-03 delta_en =   0.311673E+00 tol =   0.100000E-03
 Iteration #         24
  pAp =   1.192487067268289E-004  rzold =   4.219386628796668E-005  alpha = 
  0.353830808283926     
 delta_qm =   0.400980E-03 delta_en =   0.125026E+00 tol =   0.100000E-03
 Iteration #         25
  pAp =   4.620979054420120E-005  rzold =   1.296108465399651E-005  alpha = 
  0.280483518781562     
 delta_qm =   0.287862E-03 delta_en =   0.644356E-01 tol =   0.100000E-03
 Iteration #         26
  pAp =   2.129115423335719E-005  rzold =   7.916970593887597E-006  alpha = 
  0.371843184597477     
 delta_qm =   0.227502E-03 delta_en =   0.402462E-01 tol =   0.100000E-03
 Iteration #         27
  pAp =   2.359607641710162E-006  rzold =   1.899995493793235E-006  alpha = 
  0.805216706458953     
 delta_qm =   0.947896E-04 delta_en =   0.698679E-02 tol =   0.100000E-03
 Iteration #         28
  pAp =   1.039036609590183E-006  rzold =   6.622201531268514E-007  alpha = 
  0.637340539317517     
 delta_qm =   0.488944E-04 delta_en =   0.185898E-02 tol =   0.100000E-03
 Iteration #         29
  pAp =   2.347685165924202E-007  rzold =   1.516750950800192E-007  alpha = 
  0.646062331020906     
 delta_qm =   0.280378E-04 delta_en =   0.611287E-03 tol =   0.100000E-03
 Iteration #         30
  pAp =   7.973497685259479E-008  rzold =   5.071496871061329E-008  alpha = 
  0.636044189294361     
 delta_qm =   0.189408E-04 delta_en =   0.278967E-03 tol =   0.100000E-03
 Iteration #         31
  pAp =   2.038817740132180E-008  rzold =   1.550530586636135E-008  alpha = 
  0.760504755337087     
 delta_qm =   0.917003E-05 delta_en =   0.653879E-04 tol =   0.100000E-03
 Charges are converged, EXIT

%%%% ELECTRONS %%%%%%%%%%%%%%%%%%%%%%%%%%%%%%%%%%%%%%%%%%%%%%%%%%%%%%%%%%%%%%%%%
 number of electrons        =         90
 total electronic charge    =     90.0000000
 number of spin components  =  1

%%%% BOUNDARY %%%%%%%%%%%%%%%%%%%%%%%%%%%%%%%%%%%%%%%%%%%%%%%%%%%%%%%%%%%%%%%%%%
 boundary mode              = full                 
 boundary is built as a function of a smooth density
 function type              =  2 
 using the modified SCCS function with parameters 
 rhomax                     =      0.0050000 
 rhomin                     =      0.0001000 
 volume of the QM region    =   1624.9048871 
 surface of the QM region   =    295.1883305 

%%%% DIELECTRIC %%%%%%%%%%%%%%%%%%%%%%%%%%%%%%%%%%%%%%%%%%%%%%%%%%%%%%%%%%%%%%%%%
 dielectric build on homogeneous background
 environment bulk permitt.  =    100.0000000 
 dielectric flags
 need gradient              =  F 
 need factor depend. sqrt   =  T 
 need gradient of logarithm =  T 

%%%% COMPUTE ELECTROSTATIC POTENTIAL %%%%%%%%%%%%%%%%%%%%%%%%%%%%%%%%%%%%%%%%%%%
 Warning: bad guess with residual norm =   0.143966E+05, reset to no guess
 Iteration #          1
  pAp =    1278.57280224284       rzold =    1274.71343923549       alpha = 
  0.996981507036137     
 delta_qm =   0.209422E+00 delta_en =   0.341038E+05 tol =   0.100000E-03
 Iteration #          2
  pAp =    4093.96133654009       rzold =    122.767258855831       alpha = 
  2.998740065278320E-002
 delta_qm =   0.161473E-01 delta_en =   0.202748E+03 tol =   0.100000E-03
 Iteration #          3
  pAp =    1.79296599627789       rzold =   0.259830797204866       alpha = 
  0.144916745629455     
 delta_qm =   0.123659E-01 delta_en =   0.118906E+03 tol =   0.100000E-03
 Iteration #          4
  pAp =   9.170533903711737E-003  rzold =   8.592010173115266E-003  alpha = 
  0.936914934651480     
 delta_qm =   0.234924E-01 delta_en =   0.429153E+03 tol =   0.100000E-03
 Iteration #          5
  pAp =  -0.115823956110466       rzold =   3.588641377969058E-002  alpha = 
 -0.309835849031648     
 delta_qm =   0.570838E-02 delta_en =   0.253386E+02 tol =   0.100000E-03
 Iteration #          6
  pAp =   5.162367776518795E-002  rzold =  -6.690146199516604E-003  alpha = 
 -0.129594528889378     
 delta_qm =   0.327124E-02 delta_en =   0.832108E+01 tol =   0.100000E-03
 Iteration #          7
  pAp =   8.584101387927949E-003  rzold =   4.967183238902753E-003  alpha = 
  0.578649181134817     
 delta_qm =   0.179316E-02 delta_en =   0.250030E+01 tol =   0.100000E-03
 Iteration #          8
  pAp =   1.990761502412771E-003  rzold =   1.033679901743452E-003  alpha = 
  0.519238442420475     
 delta_qm =   0.252862E-02 delta_en =   0.497192E+01 tol =   0.100000E-03
 Iteration #          9
  pAp =   6.846682958130537E-004  rzold =   4.032910110206460E-004  alpha = 
  0.589031233791441     
 delta_qm =   0.285640E-02 delta_en =   0.634447E+01 tol =   0.100000E-03
 Iteration #         10
  pAp =   3.001953244117777E-004  rzold =   5.577963156201518E-004  alpha = 
   1.85811127043079     
 delta_qm =   0.286405E-02 delta_en =   0.637849E+01 tol =   0.100000E-03
 Iteration #         11
  pAp =   8.753478639052479E-004  rzold =   1.955212498598261E-003  alpha = 
   2.23364056647758     
 delta_qm =   0.386380E-02 delta_en =   0.116088E+02 tol =   0.100000E-03
 Iteration #         12
  pAp =   1.034365409500300E-002  rzold =   5.091897957064499E-003  alpha = 
  0.492272644686019     
 delta_qm =   0.375602E-02 delta_en =   0.109702E+02 tol =   0.100000E-03
 Iteration #         13
  pAp =   0.304991407896322       rzold =   1.295518691611833E-002  alpha = 
  4.247721929439494E-002
 delta_qm =   0.387581E-02 delta_en =   0.116810E+02 tol =   0.100000E-03
 Iteration #         14
  pAp =   7.442106751774509E-003  rzold =   2.699589364171377E-003  alpha = 
  0.362745315837841     
 delta_qm =   0.293665E-02 delta_en =   0.670596E+01 tol =   0.100000E-03
 Iteration #         15
  pAp =   2.409568018117453E-003  rzold =   9.407909968696401E-004  alpha = 
  0.390439692839491     
 delta_qm =   0.226392E-02 delta_en =   0.398547E+01 tol =   0.100000E-03
 Iteration #         16
  pAp =   3.223902331685168E-004  rzold =   3.045032308817705E-004  alpha = 
  0.944517542882893     
 delta_qm =   0.119668E-02 delta_en =   0.111357E+01 tol =   0.100000E-03
 Iteration #         17
  pAp =   3.084865348167019E-004  rzold =   2.093479570617605E-004  alpha = 
  0.678629156978122     
 delta_qm =   0.697683E-03 delta_en =   0.378506E+00 tol =   0.100000E-03
 Iteration #         18
  pAp =   1.452314110101686E-004  rzold =   8.423893273297305E-005  alpha = 
  0.580032460932814     
 delta_qm =   0.366473E-03 delta_en =   0.104434E+00 tol =   0.100000E-03
 Iteration #         19
  pAp =   1.954220261369260E-005  rzold =   1.070868336197251E-005  alpha = 
  0.547977296810406     
 delta_qm =   0.193347E-03 delta_en =   0.290691E-01 tol =   0.100000E-03
 Iteration #         20
  pAp =   3.431968779216484E-006  rzold =   2.486162192962185E-006  alpha = 
  0.724412823338613     
 delta_qm =   0.113951E-03 delta_en =   0.100970E-01 tol =   0.100000E-03
 Iteration #         21
  pAp =   8.508299676918608E-007  rzold =   7.750180258864147E-007  alpha = 
  0.910896483804973     
 delta_qm =   0.458148E-04 delta_en =   0.163218E-02 tol =   0.100000E-03
 Iteration #         22
  pAp =   3.157254235969163E-007  rzold =   1.984849296681355E-007  alpha = 
  0.628663119386734     
 delta_qm =   0.271198E-04 delta_en =   0.571910E-03 tol =   0.100000E-03
 Iteration #         23
  pAp =   3.119364184966134E-007  rzold =   5.876546074156812E-008  alpha = 
  0.188389226961026     
 delta_qm =   0.235875E-04 delta_en =   0.432635E-03 tol =   0.100000E-03
 Iteration #         24
  pAp =   2.260561511480148E-006  rzold =   2.091392428605303E-007  alpha = 
  9.251650167377760E-002
 delta_qm =   0.150625E-04 delta_en =   0.176421E-03 tol =   0.100000E-03
 Iteration #         25
  pAp =   1.753746089144206E-008  rzold =   1.238473415469307E-008  alpha = 
  0.706187413979442     
 delta_qm =   0.568451E-05 delta_en =   0.251271E-04 tol =   0.100000E-03
 Charges are converged, EXIT

%%%% ELECTRONS %%%%%%%%%%%%%%%%%%%%%%%%%%%%%%%%%%%%%%%%%%%%%%%%%%%%%%%%%%%%%%%%%
 number of electrons        =         90
 total electronic charge    =     90.0000000
 number of spin components  =  1

%%%% BOUNDARY %%%%%%%%%%%%%%%%%%%%%%%%%%%%%%%%%%%%%%%%%%%%%%%%%%%%%%%%%%%%%%%%%%
 boundary mode              = full                 
 boundary is built as a function of a smooth density
 function type              =  2 
 using the modified SCCS function with parameters 
 rhomax                     =      0.0050000 
 rhomin                     =      0.0001000 
 volume of the QM region    =   1616.5217413 
 surface of the QM region   =    275.9253632 

%%%% DIELECTRIC %%%%%%%%%%%%%%%%%%%%%%%%%%%%%%%%%%%%%%%%%%%%%%%%%%%%%%%%%%%%%%%%%
 dielectric build on homogeneous background
 environment bulk permitt.  =    100.0000000 
 dielectric flags
 need gradient              =  F 
 need factor depend. sqrt   =  T 
 need gradient of logarithm =  T 

%%%% COMPUTE ELECTROSTATIC POTENTIAL %%%%%%%%%%%%%%%%%%%%%%%%%%%%%%%%%%%%%%%%%%%
 Warning: bad guess with residual norm =   0.681096E+04, reset to no guess
 Iteration #          1
  pAp =    1273.36534105285       rzold =    1272.38292292665       alpha = 
  0.999228486833646     
 delta_qm =   0.935536E-01 delta_en =   0.680578E+04 tol =   0.100000E-03
 Iteration #          2
  pAp =    919.531012606932       rzold =    28.9950506395259       alpha = 
  3.153243364497627E-002
 delta_qm =   0.170086E-01 delta_en =   0.224953E+03 tol =   0.100000E-03
 Iteration #          3
  pAp =    1.25554537716498       rzold =   0.187650617439595       alpha = 
  0.149457455582617     
 delta_qm =   0.172388E-01 delta_en =   0.231085E+03 tol =   0.100000E-03
 Iteration #          4
  pAp =  -1.437711909048480E-002  rzold =   1.401390691791455E-002  alpha = 
 -0.974736790431775     
 delta_qm =   0.971093E-02 delta_en =   0.733294E+02 tol =   0.100000E-03
 Iteration #          5
  pAp =   0.344617989897499       rzold =   3.609154222885703E-002  alpha = 
  0.104729129897113     
 delta_qm =   0.910197E-02 delta_en =   0.644209E+02 tol =   0.100000E-03
 Iteration #          6
  pAp =   2.880707362969598E-002  rzold =  -1.577601023265124E-002  alpha = 
 -0.547643625154220     
 delta_qm =   0.223482E-02 delta_en =   0.388367E+01 tol =   0.100000E-03
 Iteration #          7
  pAp =   1.158016068102188E-002  rzold =   3.970947397875158E-003  alpha = 
  0.342909524941475     
 delta_qm =   0.118992E-02 delta_en =   0.110102E+01 tol =   0.100000E-03
 Iteration #          8
  pAp =   9.613606492973739E-004  rzold =   4.682391009456931E-004  alpha = 
  0.487058734188791     
 delta_qm =   0.110910E-02 delta_en =   0.956532E+00 tol =   0.100000E-03
 Iteration #          9
  pAp =   2.913010435055821E-004  rzold =   1.411819622464263E-004  alpha = 
  0.484659994854158     
 delta_qm =   0.121154E-02 delta_en =   0.114138E+01 tol =   0.100000E-03
 Iteration #         10
  pAp =   9.618218461298283E-005  rzold =   1.310323032610809E-004  alpha = 
   1.36233444674113     
 delta_qm =   0.128606E-02 delta_en =   0.128611E+01 tol =   0.100000E-03
 Iteration #         11
  pAp =   1.410020859090301E-004  rzold =   3.454095169672709E-004  alpha = 
   2.44967664655768     
 delta_qm =   0.173423E-02 delta_en =   0.233867E+01 tol =   0.100000E-03
 Iteration #         12
  pAp =   2.107339336888918E-003  rzold =   1.215411626214030E-003  alpha = 
  0.576751738525582     
 delta_qm =   0.188857E-02 delta_en =   0.277345E+01 tol =   0.100000E-03
 Iteration #         13
  pAp =   0.102011896162005       rzold =   4.720413471193101E-003  alpha = 
  4.627316664809986E-002
 delta_qm =   0.192251E-02 delta_en =   0.287405E+01 tol =   0.100000E-03
 Iteration #         14
  pAp =   2.176913902331254E-003  rzold =   8.359698488867372E-004  alpha = 
  0.384016036643203     
 delta_qm =   0.149814E-02 delta_en =   0.174526E+01 tol =   0.100000E-03
 Iteration #         15
  pAp =   8.507769279649901E-004  rzold =   3.350957639263095E-004  alpha = 
  0.393870300088931     
 delta_qm =   0.114189E-02 delta_en =   0.101392E+01 tol =   0.100000E-03
 Iteration #         16
  pAp =   1.221045063131849E-004  rzold =   9.662427437586278E-005  alpha = 
  0.791324393286779     
 delta_qm =   0.689961E-03 delta_en =   0.370174E+00 tol =   0.100000E-03
 Iteration #         17
  pAp =   9.804547519038616E-005  rzold =   7.094760449037110E-005  alpha = 
  0.723619364918207     
 delta_qm =   0.328117E-03 delta_en =   0.837171E-01 tol =   0.100000E-03
 Iteration #         18
  pAp =   4.086142624791987E-005  rzold =   2.703410276240393E-005  alpha = 
  0.661604482388330     
 delta_qm =   0.181706E-03 delta_en =   0.256741E-01 tol =   0.100000E-03
 Iteration #         19
  pAp =   6.795670885858521E-006  rzold =   3.625148055466341E-006  alpha = 
  0.533449620553301     
 delta_qm =   0.104854E-03 delta_en =   0.854919E-02 tol =   0.100000E-03
 Iteration #         20
  pAp =   8.616395174869205E-007  rzold =   6.114102369911024E-007  alpha = 
  0.709589363745011     
 delta_qm =   0.494621E-04 delta_en =   0.190240E-02 tol =   0.100000E-03
 Iteration #         21
  pAp =   1.755640832982939E-007  rzold =   1.555833940853840E-007  alpha = 
  0.886191475855791     
 delta_qm =   0.174522E-04 delta_en =   0.236840E-03 tol =   0.100000E-03
 Iteration #         22
  pAp =   7.888316368295883E-008  rzold =   4.206604487434562E-008  alpha = 
  0.533270255785052     
 delta_qm =   0.112328E-04 delta_en =   0.981151E-04 tol =   0.100000E-03
 Charges are converged, EXIT

%%%% ELECTRONS %%%%%%%%%%%%%%%%%%%%%%%%%%%%%%%%%%%%%%%%%%%%%%%%%%%%%%%%%%%%%%%%%
 number of electrons        =         90
 total electronic charge    =     90.0000000
 number of spin components  =  1

%%%% BOUNDARY %%%%%%%%%%%%%%%%%%%%%%%%%%%%%%%%%%%%%%%%%%%%%%%%%%%%%%%%%%%%%%%%%%
 boundary mode              = full                 
 boundary is built as a function of a smooth density
 function type              =  2 
 using the modified SCCS function with parameters 
 rhomax                     =      0.0050000 
 rhomin                     =      0.0001000 
 volume of the QM region    =   1602.2087201 
 surface of the QM region   =    269.7184555 

%%%% DIELECTRIC %%%%%%%%%%%%%%%%%%%%%%%%%%%%%%%%%%%%%%%%%%%%%%%%%%%%%%%%%%%%%%%%%
 dielectric build on homogeneous background
 environment bulk permitt.  =    100.0000000 
 dielectric flags
 need gradient              =  F 
 need factor depend. sqrt   =  T 
 need gradient of logarithm =  T 

%%%% COMPUTE ELECTROSTATIC POTENTIAL %%%%%%%%%%%%%%%%%%%%%%%%%%%%%%%%%%%%%%%%%%%
 Warning: bad guess with residual norm =   0.131453E+03, reset to no guess
 Iteration #          1
  pAp =    1270.15701563472       rzold =    1269.37204392567       alpha = 
  0.999381988447585     
 delta_qm =   0.788274E-01 delta_en =   0.483182E+04 tol =   0.100000E-03
 Iteration #          2
  pAp =    712.422470994503       rzold =    22.5594489104679       alpha = 
  3.166583007829075E-002
 delta_qm =   0.172369E-01 delta_en =   0.231034E+03 tol =   0.100000E-03
 Iteration #          3
  pAp =    1.66973316499288       rzold =   0.243140560845514       alpha = 
  0.145616417007894     
 delta_qm =   0.153237E-01 delta_en =   0.182593E+03 tol =   0.100000E-03
 Iteration #          4
  pAp =  -8.767078391131502E-003  rzold =   1.377665297406995E-002  alpha = 
  -1.57140752705097     
 delta_qm =   0.134254E-01 delta_en =   0.140155E+03 tol =   0.100000E-03
 Iteration #          5
  pAp =   0.774008783902468       rzold =   6.923998186051084E-002  alpha = 
  8.945632569104756E-002
 delta_qm =   0.835243E-02 delta_en =   0.542478E+02 tol =   0.100000E-03
 Iteration #          6
  pAp =   7.227598665385794E-002  rzold =  -3.189647079939911E-002  alpha = 
 -0.441314913515560     
 delta_qm =   0.184345E-02 delta_en =   0.264253E+01 tol =   0.100000E-03
 Iteration #          7
  pAp =   1.219693784051515E-002  rzold =   3.849486192588225E-003  alpha = 
  0.315610872411041     
 delta_qm =   0.109611E-02 delta_en =   0.934247E+00 tol =   0.100000E-03
 Iteration #          8
  pAp =   1.041928354889648E-003  rzold =   4.687159959513835E-004  alpha = 
  0.449854343392954     
 delta_qm =   0.943049E-03 delta_en =   0.691551E+00 tol =   0.100000E-03
 Iteration #          9
  pAp =   3.076367882233402E-004  rzold =   1.378424577268785E-004  alpha = 
  0.448068836379889     
 delta_qm =   0.983000E-03 delta_en =   0.751386E+00 tol =   0.100000E-03
 Iteration #         10
  pAp =   8.346642433064106E-005  rzold =   1.051257907052207E-004  alpha = 
   1.25949795439636     
 delta_qm =   0.108608E-02 delta_en =   0.917241E+00 tol =   0.100000E-03
 Iteration #         11
  pAp =   7.162937567692933E-005  rzold =   2.323620101185131E-004  alpha = 
   3.24394856052547     
 delta_qm =   0.147413E-02 delta_en =   0.168978E+01 tol =   0.100000E-03
 Iteration #         12
  pAp =   1.070907690913723E-003  rzold =   8.360380427758668E-004  alpha = 
  0.780681705687014     
 delta_qm =   0.173425E-02 delta_en =   0.233872E+01 tol =   0.100000E-03
 Iteration #         13
  pAp =   6.118626102459907E-003  rzold =   8.073290095601903E-004  alpha = 
  0.131946125819915     
 delta_qm =   0.151375E-02 delta_en =   0.178183E+01 tol =   0.100000E-03
 Iteration #         14
  pAp =   1.687457041756784E-002  rzold =   1.768155211059636E-003  alpha = 
  0.104782235476575     
 delta_qm =   0.137072E-02 delta_en =   0.146101E+01 tol =   0.100000E-03
 Iteration #         15
  pAp =   6.015296448570307E-004  rzold =   2.514458708662077E-004  alpha = 
  0.418010771399256     
 delta_qm =   0.102315E-02 delta_en =   0.814026E+00 tol =   0.100000E-03
 Iteration #         16
  pAp =   1.294138197705840E-004  rzold =   1.116492554546044E-004  alpha = 
  0.862730546494406     
 delta_qm =   0.532552E-03 delta_en =   0.220536E+00 tol =   0.100000E-03
 Iteration #         17
  pAp =   1.218711810708923E-004  rzold =   8.058727902709240E-005  alpha = 
  0.661249676248028     
 delta_qm =   0.285622E-03 delta_en =   0.634363E-01 tol =   0.100000E-03
 Iteration #         18
  pAp =   5.648389261326014E-005  rzold =   3.133056883677283E-005  alpha = 
  0.554681474438921     
 delta_qm =   0.165722E-03 delta_en =   0.213559E-01 tol =   0.100000E-03
 Iteration #         19
  pAp =   7.797097728134291E-006  rzold =   4.097594627402141E-006  alpha = 
  0.525528186291263     
 delta_qm =   0.108379E-03 delta_en =   0.913372E-02 tol =   0.100000E-03
 Iteration #         20
  pAp =   1.186139977397604E-006  rzold =   7.670473351743092E-007  alpha = 
  0.646675223658859     
 delta_qm =   0.548630E-04 delta_en =   0.234054E-02 tol =   0.100000E-03
 Iteration #         21
  pAp =   2.126951962057816E-007  rzold =   1.924320974876114E-007  alpha = 
  0.904731751917116     
 delta_qm =   0.180628E-04 delta_en =   0.253703E-03 tol =   0.100000E-03
 Iteration #         22
  pAp =   8.172123445636155E-008  rzold =   5.235250407702683E-008  alpha = 
  0.640623020752123     
 delta_qm =   0.789347E-05 delta_en =   0.484498E-04 tol =   0.100000E-03
 Charges are converged, EXIT

%%%% ELECTRONS %%%%%%%%%%%%%%%%%%%%%%%%%%%%%%%%%%%%%%%%%%%%%%%%%%%%%%%%%%%%%%%%%
 number of electrons        =         90
 total electronic charge    =     90.0000000
 number of spin components  =  1

%%%% BOUNDARY %%%%%%%%%%%%%%%%%%%%%%%%%%%%%%%%%%%%%%%%%%%%%%%%%%%%%%%%%%%%%%%%%%
 boundary mode              = full                 
 boundary is built as a function of a smooth density
 function type              =  2 
 using the modified SCCS function with parameters 
 rhomax                     =      0.0050000 
 rhomin                     =      0.0001000 
 volume of the QM region    =   1601.5873061 
 surface of the QM region   =    267.1624977 

%%%% DIELECTRIC %%%%%%%%%%%%%%%%%%%%%%%%%%%%%%%%%%%%%%%%%%%%%%%%%%%%%%%%%%%%%%%%%
 dielectric build on homogeneous background
 environment bulk permitt.  =    100.0000000 
 dielectric flags
 need gradient              =  F 
 need factor depend. sqrt   =  T 
 need gradient of logarithm =  T 

%%%% COMPUTE ELECTROSTATIC POTENTIAL %%%%%%%%%%%%%%%%%%%%%%%%%%%%%%%%%%%%%%%%%%%
 Warning: bad guess with residual norm =   0.277877E+02, reset to no guess
 Iteration #          1
  pAp =    1270.08636111548       rzold =    1269.38942536448       alpha = 
  0.999451269006316     
 delta_qm =   0.689701E-01 delta_en =   0.369894E+04 tol =   0.100000E-03
 Iteration #          2
  pAp =    603.031520532435       rzold =    19.4287151771692       alpha = 
  3.221840735624402E-002
 delta_qm =   0.153170E-01 delta_en =   0.182434E+03 tol =   0.100000E-03
 Iteration #          3
  pAp =    1.84441659004372       rzold =   0.266603144625001       alpha = 
  0.144546056495123     
 delta_qm =   0.131801E-01 delta_en =   0.135080E+03 tol =   0.100000E-03
 Iteration #          4
  pAp =  -3.277740718788113E-003  rzold =   1.362200717297591E-002  alpha = 
  -4.15591358245457     
 delta_qm =   0.307107E-01 delta_en =   0.733391E+03 tol =   0.100000E-03
 Iteration #          5
  pAp =    3.93248785209004       rzold =   0.135249211257729       alpha = 
  3.439278552020106E-002
 delta_qm =   0.232741E-01 delta_en =   0.421215E+03 tol =   0.100000E-03
 Iteration #          6
  pAp =   0.250140177327171       rzold =  -0.111710973909470       alpha = 
 -0.446593486512793     
 delta_qm =   0.155369E-02 delta_en =   0.187708E+01 tol =   0.100000E-03
 Iteration #          7
  pAp =   1.119887887068801E-002  rzold =   3.466313837653724E-003  alpha = 
  0.309523290472091     
 delta_qm =   0.982509E-03 delta_en =   0.750636E+00 tol =   0.100000E-03
 Iteration #          8
  pAp =   8.895787594107516E-004  rzold =   4.101275935658355E-004  alpha = 
  0.461035730931233     
 delta_qm =   0.857128E-03 delta_en =   0.571278E+00 tol =   0.100000E-03
 Iteration #          9
  pAp =   2.402256673179463E-004  rzold =   1.171400225352983E-004  alpha = 
  0.487624923028145     
 delta_qm =   0.889280E-03 delta_en =   0.614941E+00 tol =   0.100000E-03
 Iteration #         10
  pAp =   9.386186982224466E-005  rzold =   1.071884438462113E-004  alpha = 
   1.14198070046127     
 delta_qm =   0.959506E-03 delta_en =   0.715899E+00 tol =   0.100000E-03
 Iteration #         11
  pAp =   7.231794495881117E-005  rzold =   2.217451575363792E-004  alpha = 
   3.06625357873035     
 delta_qm =   0.135372E-02 delta_en =   0.142501E+01 tol =   0.100000E-03
 Iteration #         12
  pAp =   9.620237005650422E-004  rzold =   7.100804220465576E-004  alpha = 
  0.738111152177949     
 delta_qm =   0.129188E-02 delta_en =   0.129777E+01 tol =   0.100000E-03
 Iteration #         13
  pAp =   2.078461940968917E-002  rzold =   1.150491120446492E-003  alpha = 
  5.535300395782890E-002
 delta_qm =   0.139083E-02 delta_en =   0.150419E+01 tol =   0.100000E-03
 Iteration #         14
  pAp =   2.410707946340919E-003  rzold =   6.828267111117471E-004  alpha = 
  0.283247380566432     
 delta_qm =   0.113940E-02 delta_en =   0.100951E+01 tol =   0.100000E-03
 Iteration #         15
  pAp =   4.057460958369266E-004  rzold =   1.716314000088374E-004  alpha = 
  0.423001975298902     
 delta_qm =   0.878270E-03 delta_en =   0.599808E+00 tol =   0.100000E-03
 Iteration #         16
  pAp =   1.508296452069750E-004  rzold =   1.077171977983176E-004  alpha = 
  0.714164630238992     
 delta_qm =   0.435172E-03 delta_en =   0.147258E+00 tol =   0.100000E-03
 Iteration #         17
  pAp =   8.621507505426277E-005  rzold =   6.150715323537996E-005  alpha = 
  0.713415295372278     
 delta_qm =   0.212809E-03 delta_en =   0.352157E-01 tol =   0.100000E-03
 Iteration #         18
  pAp =   3.790462332751289E-005  rzold =   2.062361878356009E-005  alpha = 
  0.544092434460113     
 delta_qm =   0.109850E-03 delta_en =   0.938337E-02 tol =   0.100000E-03
 Iteration #         19
  pAp =   5.187716396244387E-006  rzold =   2.629548428316433E-006  alpha = 
  0.506879757386136     
 delta_qm =   0.712874E-04 delta_en =   0.395168E-02 tol =   0.100000E-03
 Iteration #         20
  pAp =   7.449658116475226E-007  rzold =   4.449721099116074E-007  alpha = 
  0.597305410469151     
 delta_qm =   0.404493E-04 delta_en =   0.127227E-02 tol =   0.100000E-03
 Iteration #         21
  pAp =   1.199390774570913E-007  rzold =   1.040240191676608E-007  alpha = 
  0.867307147704849     
 delta_qm =   0.127632E-04 delta_en =   0.126671E-03 tol =   0.100000E-03
 Iteration #         22
  pAp =   3.925783858109954E-008  rzold =   2.723152467559978E-008  alpha = 
  0.693658277170416     
 delta_qm =   0.542272E-05 delta_en =   0.228660E-04 tol =   0.100000E-03
 Charges are converged, EXIT

%%%% ELECTRONS %%%%%%%%%%%%%%%%%%%%%%%%%%%%%%%%%%%%%%%%%%%%%%%%%%%%%%%%%%%%%%%%%
 number of electrons        =         90
 total electronic charge    =     90.0000000
 number of spin components  =  1

%%%% BOUNDARY %%%%%%%%%%%%%%%%%%%%%%%%%%%%%%%%%%%%%%%%%%%%%%%%%%%%%%%%%%%%%%%%%%
 boundary mode              = full                 
 boundary is built as a function of a smooth density
 function type              =  2 
 using the modified SCCS function with parameters 
 rhomax                     =      0.0050000 
 rhomin                     =      0.0001000 
 volume of the QM region    =   1599.9615035 
 surface of the QM region   =    263.7730613 

%%%% DIELECTRIC %%%%%%%%%%%%%%%%%%%%%%%%%%%%%%%%%%%%%%%%%%%%%%%%%%%%%%%%%%%%%%%%%
 dielectric build on homogeneous background
 environment bulk permitt.  =    100.0000000 
 dielectric flags
 need gradient              =  F 
 need factor depend. sqrt   =  T 
 need gradient of logarithm =  T 

%%%% COMPUTE ELECTROSTATIC POTENTIAL %%%%%%%%%%%%%%%%%%%%%%%%%%%%%%%%%%%%%%%%%%%
 Warning: bad guess with residual norm =   0.420687E+01, reset to no guess
 Iteration #          1
  pAp =    1270.28221903503       rzold =    1269.58876022723       alpha = 
  0.999454090754473     
 delta_qm =   0.638623E-01 delta_en =   0.317136E+04 tol =   0.100000E-03
 Iteration #          2
  pAp =    583.538797427074       rzold =    18.9985575031567       alpha = 
  3.255748818574644E-002
 delta_qm =   0.141553E-01 delta_en =   0.155809E+03 tol =   0.100000E-03
 Iteration #          3
  pAp =    2.05201732380725       rzold =   0.293186264280939       alpha = 
  0.142877090207489     
 delta_qm =   0.113337E-01 delta_en =   0.998852E+02 tol =   0.100000E-03
 Iteration #          4
  pAp =   2.449175229841269E-003  rzold =   1.243088277016832E-002  alpha = 
   5.07553833580702     
 delta_qm =   0.373184E-01 delta_en =   0.108294E+04 tol =   0.100000E-03
 Iteration #          5
  pAp =    4.80397658935683       rzold =  -0.116363336003699       alpha = 
 -2.422229455936577E-002
 delta_qm =   0.432858E-01 delta_en =   0.145696E+04 tol =   0.100000E-03
 Iteration #          6
  pAp =  -0.237248083249811       rzold =   0.127166310779616       alpha = 
 -0.536005640330996     
 delta_qm =   0.137811E-02 delta_en =   0.147681E+01 tol =   0.100000E-03
 Iteration #          7
  pAp =   9.388047019855426E-003  rzold =   2.956175148602372E-003  alpha = 
  0.314887126401280     
 delta_qm =   0.921133E-03 delta_en =   0.659783E+00 tol =   0.100000E-03
 Iteration #          8
  pAp =   9.217218553963944E-004  rzold =   4.010440096459957E-004  alpha = 
  0.435103070734417     
 delta_qm =   0.820733E-03 delta_en =   0.523793E+00 tol =   0.100000E-03
 Iteration #          9
  pAp =   2.328078393855715E-004  rzold =   1.193532226803071E-004  alpha = 
  0.512668400665996     
 delta_qm =   0.832475E-03 delta_en =   0.538888E+00 tol =   0.100000E-03
 Iteration #         10
  pAp =   9.702708675669687E-005  rzold =   1.098855341912902E-004  alpha = 
   1.13252430701992     
 delta_qm =   0.896856E-03 delta_en =   0.625463E+00 tol =   0.100000E-03
 Iteration #         11
  pAp =   1.016040616735064E-004  rzold =   2.389206530695235E-004  alpha = 
   2.35148722535590     
 delta_qm =   0.114313E-02 delta_en =   0.101613E+01 tol =   0.100000E-03
 Iteration #         12
  pAp =   1.134495205437152E-003  rzold =   7.315451009850081E-004  alpha = 
  0.644819914160081     
 delta_qm =   0.124292E-02 delta_en =   0.120128E+01 tol =   0.100000E-03
 Iteration #         13
  pAp =   3.018663823390696E-002  rzold =   1.399401676689809E-003  alpha = 
  4.635831475655806E-002
 delta_qm =   0.102087E-02 delta_en =   0.810391E+00 tol =   0.100000E-03
 Iteration #         14
  pAp =   9.832170908341967E-004  rzold =   4.444019739441645E-004  alpha = 
  0.451987641475107     
 delta_qm =   0.906802E-03 delta_en =   0.639413E+00 tol =   0.100000E-03
 Iteration #         15
  pAp =   1.513975525638973E-004  rzold =   9.066003522909911E-005  alpha = 
  0.598821009281745     
 delta_qm =   0.628047E-03 delta_en =   0.306719E+00 tol =   0.100000E-03
 Iteration #         16
  pAp =   1.798342866241289E-004  rzold =   8.518890665051873E-005  alpha = 
  0.473707813174536     
 delta_qm =   0.365211E-03 delta_en =   0.103716E+00 tol =   0.100000E-03
 Iteration #         17
  pAp =   8.222691488444252E-005  rzold =   5.058745770015966E-005  alpha = 
  0.615217751648018     
 delta_qm =   0.177826E-03 delta_en =   0.245892E-01 tol =   0.100000E-03
 Iteration #         18
  pAp =   2.796168668328375E-005  rzold =   1.625529794927673E-005  alpha = 
  0.581341824382668     
 delta_qm =   0.849657E-04 delta_en =   0.561362E-02 tol =   0.100000E-03
 Iteration #         19
  pAp =   3.920769292052143E-006  rzold =   2.038255600280066E-006  alpha = 
  0.519861141641730     
 delta_qm =   0.522013E-04 delta_en =   0.211894E-02 tol =   0.100000E-03
 Iteration #         20
  pAp =   5.204719645992214E-007  rzold =   3.053939466437976E-007  alpha = 
  0.586763490477263     
 delta_qm =   0.305473E-04 delta_en =   0.725607E-03 tol =   0.100000E-03
 Iteration #         21
  pAp =   8.674782487889585E-008  rzold =   6.894305089797383E-008  alpha = 
  0.794752502373652     
 delta_qm =   0.108047E-04 delta_en =   0.907788E-04 tol =   0.100000E-03
 Charges are converged, EXIT

%%%% ELECTRONS %%%%%%%%%%%%%%%%%%%%%%%%%%%%%%%%%%%%%%%%%%%%%%%%%%%%%%%%%%%%%%%%%
 number of electrons        =         90
 total electronic charge    =     90.0000000
 number of spin components  =  1

%%%% BOUNDARY %%%%%%%%%%%%%%%%%%%%%%%%%%%%%%%%%%%%%%%%%%%%%%%%%%%%%%%%%%%%%%%%%%
 boundary mode              = full                 
 boundary is built as a function of a smooth density
 function type              =  2 
 using the modified SCCS function with parameters 
 rhomax                     =      0.0050000 
 rhomin                     =      0.0001000 
 volume of the QM region    =   1599.9615035 
 surface of the QM region   =    263.7730613 

%%%% DIELECTRIC %%%%%%%%%%%%%%%%%%%%%%%%%%%%%%%%%%%%%%%%%%%%%%%%%%%%%%%%%%%%%%%%%
 dielectric build on homogeneous background
 environment bulk permitt.  =    100.0000000 
 dielectric flags
 need gradient              =  F 
 need factor depend. sqrt   =  T 
 need gradient of logarithm =  T 
