
     Program PWSCF v.6.1 (svn rev. 13369) starts on 19Oct2017 at 16:28: 7 

     This program is part of the open-source Quantum ESPRESSO suite
     for quantum simulation of materials; please cite
         "P. Giannozzi et al., J. Phys.:Condens. Matter 21 395502 (2009);
          URL http://www.quantum-espresso.org", 
     in publications or presentations arising from this work. More details at
     http://www.quantum-espresso.org/quote

     Parallel version (MPI), running on     1 processors
     Reading input from charged.in

     Current dimensions of program PWSCF are:
     Max number of different atomic species (ntypx) = 10
     Max number of k-points (npk) =  40000
     Max angular momentum in pseudopotentials (lmaxx) =  3
               file C.pbe-rrkjus.UPF: wavefunction(s)  2S 2P renormalized
               file O.pbe-rrkjus.UPF: wavefunction(s)  2S renormalized

     gamma-point specific algorithms are used

     Subspace diagonalization in iterative solution of the eigenvalue problem:
     a serial algorithm will be used

 
     G-vector sticks info
     --------------------
     sticks:   dense  smooth     PW     G-vecs:    dense   smooth      PW
     Sum        2205    1099    269               330909   116965   14571
 


     bravais-lattice index     =            8
     lattice parameter (alat)  =      10.6881  a.u.
     unit-cell volume          =    4181.1215 (a.u.)^3
     number of atoms/cell      =           10
     number of atomic types    =            3
     number of electrons       =        89.00
     number of Kohn-Sham states=           80
     kinetic-energy cutoff     =      35.0000  Ry
     charge density cutoff     =     280.0000  Ry
     convergence threshold     =      5.0E-02
     mixing beta               =       0.7000
     number of iterations used =            8  plain     mixing
     Exchange-correlation      = PBE ( 1  4  3  4 0 0)
 

     Environ Module
     ==============

     Plese cite
         O. Andreussi, I. Dabo and N. Marzari, J. Chem. Phys. 136, 064102 (2012)         
     in publications or presentations arising from this work.

     compensation onset threshold      =               0.1000E+03 
     static permittivity               =                   100.00 
     epsilon calculation mode          =               electronic 

     Electrostatic Setup
     -------------------
     electrostatic problem to solve    = generalized              
     numerical solver adopted          = cg                       
     type of auxiliary density adopted = none                     
     type of core tool for poisson     = fft                      
     type of core tool for s(r) deriv  = analytic                 



     celldm(1)=  10.688100  celldm(2)=   0.866025  celldm(3)=   3.954220
     celldm(4)=   0.000000  celldm(5)=   0.000000  celldm(6)=   0.000000

     crystal axes: (cart. coord. in units of alat)
               a(1) = (   1.000000   0.000000   0.000000 )  
               a(2) = (   0.000000   0.866025   0.000000 )  
               a(3) = (   0.000000   0.000000   3.954220 )  

     reciprocal axes: (cart. coord. in units 2 pi/alat)
               b(1) = (  1.000000  0.000000  0.000000 )  
               b(2) = (  0.000000  1.154701  0.000000 )  
               b(3) = (  0.000000  0.000000  0.252894 )  


     PseudoPot. # 1 for C  read from file:
     /home/andreo/PWSCF/espresso-6.1-Environ-1.0/Environ/tests/../..//pseudo/C.pbe-rrkjus.UPF
     MD5 check sum: 00fb224312de0c5b6853bd333518df6f
     Pseudo is Ultrasoft, Zval =  4.0
     Generated by new atomic code, or converted to UPF format
     Using radial grid of  627 points,  4 beta functions with: 
                l(1) =   0
                l(2) =   0
                l(3) =   1
                l(4) =   1
     Q(r) pseudized with 0 coefficients 


     PseudoPot. # 2 for O  read from file:
     /home/andreo/PWSCF/espresso-6.1-Environ-1.0/Environ/tests/../..//pseudo/O.pbe-rrkjus.UPF
     MD5 check sum: 390ba29e75625707450f3bd3f0eb6be9
     Pseudo is Ultrasoft, Zval =  6.0
     Generated by new atomic code, or converted to UPF format
     Using radial grid of 1269 points,  4 beta functions with: 
                l(1) =   0
                l(2) =   0
                l(3) =   1
                l(4) =   1
     Q(r) pseudized with 0 coefficients 


     PseudoPot. # 3 for Pt read from file:
     /home/andreo/PWSCF/espresso-6.1-Environ-1.0/Environ/tests/../..//pseudo/Pt.pbe-n-rrkjus_psl.0.1.UPF
     MD5 check sum: df5be8f5ed4f66d4aed38ca70ec8d507
     Pseudo is Ultrasoft + core correction, Zval = 10.0
     Generated using "atomic" code by A. Dal Corso  v.5.0.2 svn rev. 9415
     Using radial grid of 1277 points,  6 beta functions with: 
                l(1) =   0
                l(2) =   0
                l(3) =   1
                l(4) =   1
                l(5) =   2
                l(6) =   2
     Q(r) pseudized with 0 coefficients 


     atomic species   valence    mass     pseudopotential
        C              4.00     1.00000     C ( 1.00)
        O              6.00     1.00000     O ( 1.00)
        Pt            10.00     1.00000     Pt( 1.00)

     No symmetry found



   Cartesian axes

     site n.     atom                  positions (alat units)
         1           C   tau(   1) = (   0.4991611   0.4347567   1.2070461  )
         2           O   tau(   2) = (   0.4991542   0.4322212   1.4109013  )
         3           Pt  tau(   3) = (   0.7542339   0.0091745   0.8413229  )
         4           Pt  tau(   4) = (   0.2441023   0.0091745   0.8413226  )
         5           Pt  tau(   5) = (   0.0000034   0.4416918   0.8391348  )
         6           Pt  tau(   6) = (   0.4991682   0.4417635   0.8776299  )
         7           Pt  tau(   7) = (   0.0000038   0.7300598   0.4308181  )
         8           Pt  tau(   8) = (   0.4991683   0.7202168   0.4447460  )
         9           Pt  tau(   9) = (   0.2524172   0.2949237   0.4386572  )
        10           Pt  tau(  10) = (   0.7459196   0.2949237   0.4386575  )

     number of k points=     1  Marzari-Vanderbilt smearing, width (Ry)=  0.0300
                       cart. coord. in units 2pi/alat
        k(    1) = (   0.0000000   0.0000000   0.0000000), wk =   2.0000000

     Dense  grid:   165455 G-vectors     FFT dimensions: (  60,  50, 225)

     Smooth grid:    58483 G-vectors     FFT dimensions: (  45,  36, 160)

     Estimated max dynamical RAM per process >     216.67MB

     Initial potential from superposition of free atoms
     Check: negative starting charge=   -0.001782

     starting charge   89.99859, renormalised to   89.00000

     negative rho (up, down):  1.762E-03 0.000E+00
     Starting wfc are   80 randomized atomic wfcs

     total cpu time spent up to now is        5.6 secs

     per-process dynamical memory:   283.0 Mb

     Self-consistent Calculation

     iteration #  1     ecut=    35.00 Ry     beta=0.70
     Davidson diagonalization with overlap
     ethr =  1.00E-02,  avg # of iterations =  5.0

     negative rho (up, down):  1.526E-03 0.000E+00

     add environment contribution to local potential
     polarization accuracy = 5.6E-05, # of iterations =  24

     total cpu time spent up to now is       10.7 secs

     total energy              =    -622.68843633 Ry
     Harris-Foulkes estimate   =    -624.21108732 Ry
     estimated scf accuracy    <       1.86594048 Ry
     electrostatic embedding   =       0.03381190 Ry
     correction to one-el term =       0.00000000 Ry

     iteration #  2     ecut=    35.00 Ry     beta=0.70
     Davidson diagonalization with overlap
     ethr =  2.10E-03,  avg # of iterations =  8.0

     negative rho (up, down):  2.179E-02 0.000E+00

     add environment contribution to local potential
     polarization accuracy = 5.3E-05, # of iterations =  37

     total cpu time spent up to now is       17.3 secs

     total energy              =    -618.03132807 Ry
     Harris-Foulkes estimate   =    -636.08543731 Ry
     estimated scf accuracy    <      52.50890127 Ry
     electrostatic embedding   =       0.19167430 Ry
     correction to one-el term =       8.42628195 Ry

     iteration #  3     ecut=    35.00 Ry     beta=0.70
     Davidson diagonalization with overlap
     ethr =  2.10E-03,  avg # of iterations =  3.0

     negative rho (up, down):  7.173E-03 0.000E+00

     add environment contribution to local potential
     polarization accuracy = 4.6E-05, # of iterations =  26

     total cpu time spent up to now is       22.4 secs

     total energy              =    -623.28105120 Ry
     Harris-Foulkes estimate   =    -632.98780652 Ry
     estimated scf accuracy    <       2.93380176 Ry
     electrostatic embedding   =       0.21419296 Ry
     correction to one-el term =       8.89023713 Ry

     iteration #  4     ecut=    35.00 Ry     beta=0.70
     Davidson diagonalization with overlap
     ethr =  2.10E-03,  avg # of iterations =  2.0

     negative rho (up, down):  9.892E-03 0.000E+00

     add environment contribution to local potential
     polarization accuracy = 6.3E-05, # of iterations =  31

     total cpu time spent up to now is       27.6 secs

     total energy              =    -623.59645782 Ry
     Harris-Foulkes estimate   =    -634.36487280 Ry
     estimated scf accuracy    <       1.92997845 Ry
     electrostatic embedding   =       0.21893447 Ry
     correction to one-el term =      10.22489657 Ry

     iteration #  5     ecut=    35.00 Ry     beta=0.70
     Davidson diagonalization with overlap
     ethr =  2.10E-03,  avg # of iterations =  1.0

     negative rho (up, down):  9.866E-03 0.000E+00

     add environment contribution to local potential
     polarization accuracy = 7.3E-05, # of iterations =  34

     total cpu time spent up to now is       32.9 secs

     total energy              =    -623.68202850 Ry
     Harris-Foulkes estimate   =    -633.73326812 Ry
     estimated scf accuracy    <       0.50224800 Ry
     electrostatic embedding   =       0.21587167 Ry
     correction to one-el term =       9.78660758 Ry

     iteration #  6     ecut=    35.00 Ry     beta=0.70
     Davidson diagonalization with overlap
     ethr =  5.64E-04,  avg # of iterations =  1.0

     negative rho (up, down):  7.496E-03 0.000E+00

     add environment contribution to local potential
     polarization accuracy = 6.9E-05, # of iterations =  31

     total cpu time spent up to now is       38.1 secs

     total energy              =    -623.67687048 Ry
     Harris-Foulkes estimate   =    -633.00876757 Ry
     estimated scf accuracy    <       0.58967238 Ry
     electrostatic embedding   =       0.21185512 Ry
     correction to one-el term =       9.07942216 Ry

     iteration #  7     ecut=    35.00 Ry     beta=0.70
     Davidson diagonalization with overlap
     ethr =  5.64E-04,  avg # of iterations =  1.0

     negative rho (up, down):  3.971E-03 0.000E+00

     add environment contribution to local potential
     polarization accuracy = 4.6E-05, # of iterations =  28

     total cpu time spent up to now is       42.9 secs

     total energy              =    -623.68578709 Ry
     Harris-Foulkes estimate   =    -632.67951224 Ry
     estimated scf accuracy    <       0.06390836 Ry
     electrostatic embedding   =       0.20868277 Ry
     correction to one-el term =       8.77074011 Ry

     iteration #  8     ecut=    35.00 Ry     beta=0.70
     Davidson diagonalization with overlap
     ethr =  7.18E-05,  avg # of iterations = 11.0

     negative rho (up, down):  2.814E-03 0.000E+00

     add environment contribution to local potential
     polarization accuracy = 8.3E-05, # of iterations =  27

     total cpu time spent up to now is       48.2 secs

     total energy              =    -623.69007420 Ry
     Harris-Foulkes estimate   =    -632.22164368 Ry
     estimated scf accuracy    <       0.07199267 Ry
     electrostatic embedding   =       0.20442246 Ry
     correction to one-el term =       8.31948396 Ry

     iteration #  9     ecut=    35.00 Ry     beta=0.70
     Davidson diagonalization with overlap
     ethr =  7.18E-05,  avg # of iterations =  1.0

     negative rho (up, down):  3.343E-03 0.000E+00

     add environment contribution to local potential
     polarization accuracy = 6.8E-05, # of iterations =  27

     total cpu time spent up to now is       53.0 secs

     total energy              =    -623.69185398 Ry
     Harris-Foulkes estimate   =    -631.79977182 Ry
     estimated scf accuracy    <       0.07064088 Ry
     electrostatic embedding   =       0.20149055 Ry
     correction to one-el term =       7.89821569 Ry

     iteration # 10     ecut=    35.00 Ry     beta=0.70
     Davidson diagonalization with overlap
     ethr =  7.18E-05,  avg # of iterations =  1.0

     negative rho (up, down):  2.092E-03 0.000E+00

     total cpu time spent up to now is       55.6 secs

     End of self-consistent calculation

          k = 0.0000 0.0000 0.0000 (  7286 PWs)   bands (ev):

   -29.5400 -16.0416 -14.3801 -13.1868 -12.9188 -12.3823 -12.3730 -12.2057
   -12.0344 -11.1959 -11.0578 -10.9473 -10.7239 -10.6775 -10.6030 -10.4688
    -9.7892  -9.7496  -9.6946  -9.4945  -9.4442  -9.3962  -9.3526  -9.3200
    -9.3018  -9.1245  -9.1010  -9.0133  -8.9030  -8.6647  -8.5628  -7.8094
    -7.6806  -7.4189  -7.1692  -7.1386  -7.0729  -6.9051  -6.7610  -6.6282
    -6.4459  -6.4353  -6.2363  -6.1900  -6.1467  -5.9774  -5.8422  -4.7629
    -4.4387  -4.3714  -3.7833  -3.1124  -2.9688  -2.0040  -1.6818  -1.5972
    -0.2501  -0.0531   0.0527   0.3511   0.8588   1.1916   1.4090   1.4342
     2.2766   2.5111   2.7059   2.8452   2.9781   3.3213   4.1792   4.5819
     4.6753   4.7380   4.9716   5.3155   5.4053   5.4750   5.5798   5.6590

     the Fermi energy is    -6.0625 ev

!    total energy              =    -623.69499424 Ry
     Harris-Foulkes estimate   =    -631.82902916 Ry
     estimated scf accuracy    <       0.00221624 Ry

     The total energy is the sum of the following terms:

     one-electron contribution =   -3947.13915403 Ry
     hartree contribution      =    2004.84999394 Ry
     xc contribution           =    -262.74114822 Ry
     ewald contribution        =    1573.20467954 Ry
     smearing contrib. (-TS)   =      -0.00135301 Ry
     electrostatic embedding   =       0.20139306 Ry
     correction to one-el term =       7.93059450 Ry

     convergence has been achieved in  10 iterations

     negative rho (up, down):  2.092E-03 0.000E+00

     Forces acting on atoms (cartesian axes, Ry/au):

     atom    1 type  1   force =    -0.00008825   -0.00439074    0.06959856
     atom    2 type  2   force =     0.00005201    0.00134060   -0.02988823
     atom    3 type  3   force =    -0.00460861    0.01195726    0.02016070
     atom    4 type  3   force =     0.00552795    0.01191245    0.02197822
     atom    5 type  3   force =    -0.00270728    0.01149557   -0.01099141
     atom    6 type  3   force =     0.00168759    0.00994377    0.04014431
     atom    7 type  3   force =    -0.00232868   -0.01039812   -0.03454862
     atom    8 type  3   force =     0.00142283   -0.02084524   -0.01425576
     atom    9 type  3   force =     0.02313655   -0.00553951   -0.03163916
     atom   10 type  3   force =    -0.02209412   -0.00547604   -0.03055860

     Total force =     0.118000     Total SCF correction =     0.185618
     SCF correction compared to forces is large: reduce conv_thr to get better values

     Writing output data file pwscf.save
 
     init_run     :      5.21s CPU      5.31s WALL (       1 calls)
     electrons    :     49.17s CPU     50.77s WALL (       1 calls)
     forces       :      3.46s CPU      3.51s WALL (       1 calls)

     Called by init_run:
     wfcinit      :      0.40s CPU      0.40s WALL (       1 calls)
     potinit      :      1.84s CPU      1.85s WALL (       1 calls)

     Called by electrons:
     c_bands      :     11.16s CPU     11.23s WALL (      10 calls)
     sum_band     :      7.50s CPU      7.92s WALL (      10 calls)
     v_of_rho     :      3.12s CPU      3.16s WALL (      11 calls)
     newd         :      4.30s CPU      4.66s WALL (      11 calls)
     mix_rho      :      0.36s CPU      0.37s WALL (      10 calls)

     Called by c_bands:
     init_us_2    :      0.09s CPU      0.10s WALL (      21 calls)
     regterg      :     10.47s CPU     10.53s WALL (      10 calls)

     Called by sum_band:
     sum_band:bec :      0.00s CPU      0.00s WALL (      10 calls)
     addusdens    :      5.09s CPU      5.52s WALL (      10 calls)

     Called by *egterg:
     h_psi        :      8.42s CPU      8.43s WALL (      45 calls)
     s_psi        :      0.43s CPU      0.42s WALL (      45 calls)
     g_psi        :      0.06s CPU      0.08s WALL (      34 calls)
     rdiaghg      :      0.34s CPU      0.34s WALL (      44 calls)

     Called by h_psi:
     h_psi:pot    :      8.39s CPU      8.38s WALL (      45 calls)
     h_psi:calbec :      0.44s CPU      0.44s WALL (      45 calls)
     vloc_psi     :      7.53s CPU      7.52s WALL (      45 calls)
     add_vuspsi   :      0.41s CPU      0.42s WALL (      45 calls)

     General routines
     calbec       :      0.72s CPU      0.71s WALL (      59 calls)
     fft          :      9.85s CPU      9.90s WALL (     848 calls)
     ffts         :      0.08s CPU      0.09s WALL (      21 calls)
     fftw         :      7.90s CPU      7.82s WALL (    2412 calls)
     interpolate  :      0.40s CPU      0.41s WALL (      21 calls)
     davcio       :      0.00s CPU      0.00s WALL (       1 calls)
 
     Parallel routines
     fft_scatter  :      2.36s CPU      2.37s WALL (    3281 calls)
 
     Environ routines
     calc_eelect  :      0.02s CPU      0.01s WALL (      20 calls)
     calc_velect  :     20.17s CPU     20.17s WALL (      18 calls)
     dielectric   :      0.22s CPU      0.22s WALL (      11 calls)
     calc_felect  :      0.16s CPU      0.16s WALL (       1 calls)
 
     PWSCF        :  0m58.18s CPU     1m 2.37s WALL

 
   This run was terminated on:  16:29: 9  19Oct2017            

=------------------------------------------------------------------------------=
   JOB DONE.
=------------------------------------------------------------------------------=

%%%% IONS %%%%%%%%%%%%%%%%%%%%%%%%%%%%%%%%%%%%%%%%%%%%%%%%%%%%%%%%%%%%%%%%%%%%%%
 number of ions             =         10
 ionic center of charge     =      0.3882415     0.3750182     0.7201831
 total ionic charge         =    -90.0000000
 ionic dipole               =      0.0000000     0.0000000     0.0000000
 ionic quadrupole (pc)      =   -730.5101255  -614.6110457  -876.7220256
 ionic quadrupole (gauss)   =   -741.7601255  -625.8610457  -887.9720256
 ion   1 type =  1 coordinates =      5.3350841     4.6467234    12.9010299
 ion   2 type =  2 coordinates =      5.3350096     4.6196233    15.0798543
 ion   3 type =  3 coordinates =      8.0613271     0.0980580     8.9921429
 ion   4 type =  3 coordinates =      2.6089894     0.0980583     8.9921406
 ion   5 type =  3 coordinates =      0.0000366     4.7208463     8.9687569
 ion   6 type =  3 coordinates =      5.3351596     4.7216127     9.3801964
 ion   7 type =  3 coordinates =      0.0000411     7.8029520     4.6046265
 ion   8 type =  3 coordinates =      5.3351612     7.6977491     4.7534894
 ion   9 type =  3 coordinates =      2.6978606     3.1521739     4.6884123
 ion  10 type =  3 coordinates =      7.9724637     3.1521745     4.6884152

%%%% SYSTEM %%%%%%%%%%%%%%%%%%%%%%%%%%%%%%%%%%%%%%%%%%%%%%%%%%%%%%%%%%%%%%%%%%%%
 system is built from all present ionic types
 system defined dimension   =  0 
 system defined axis        =  3 
 system center              =      0.3882415     0.3750182     0.7201831 
 system width               =      1.5145225 

%%%% ELECTRONS %%%%%%%%%%%%%%%%%%%%%%%%%%%%%%%%%%%%%%%%%%%%%%%%%%%%%%%%%%%%%%%%%
 number of electrons        =         89
 total electronic charge    =     89.0000000
 number of spin components  =  1

%%%% BOUNDARY %%%%%%%%%%%%%%%%%%%%%%%%%%%%%%%%%%%%%%%%%%%%%%%%%%%%%%%%%%%%%%%%%%
 boundary mode              = electronic           
 boundary is built as a function of a smooth density
 function type              =  2 
 using the modified SCCS function with parameters 
 rhomax                     =      0.0050000 
 rhomin                     =      0.0001000 

%%%% DIELECTRIC %%%%%%%%%%%%%%%%%%%%%%%%%%%%%%%%%%%%%%%%%%%%%%%%%%%%%%%%%%%%%%%%%
 dielectric build on homogeneous background
 environment bulk permitt.  =    100.0000000 
 dielectric flags
 need gradient              =  F 
 need factor depend. sqrt   =  T 
 need gradient of logarithm =  T 

%%%% COMPUTE ELECTROSTATIC POTENTIAL %%%%%%%%%%%%%%%%%%%%%%%%%%%%%%%%%%%%%%%%%%%
 Iteration #          1
  pAp =    1295.49154329965       rzold =    1273.54665459821       alpha = 
  0.983060569700406     
 delta_qm =   0.202957E+00 delta_en =   0.278043E+05 tol =   0.100000E-03
 Iteration #          2
  pAp =    21528.8919666783       rzold =    667.291095350151       alpha = 
  3.099514347431177E-002
 delta_qm =   0.741295E-01 delta_en =   0.370925E+04 tol =   0.100000E-03
 Iteration #          3
  pAp =   -1.89135214417570       rzold =    1.03506452968132       alpha = 
 -0.547261668256086     
 delta_qm =   0.360685E-01 delta_en =   0.878130E+03 tol =   0.100000E-03
 Iteration #          4
  pAp =    40.6505447021884       rzold =    1.90298596549541       alpha = 
  4.681329560125100E-002
 delta_qm =   0.420994E-01 delta_en =   0.119634E+04 tol =   0.100000E-03
 Iteration #          5
  pAp =   0.942762503032663       rzold =  -0.846777105212627       alpha = 
 -0.898187085812946     
 delta_qm =   0.100863E-01 delta_en =   0.686696E+02 tol =   0.100000E-03
 Iteration #          6
  pAp =    1.17113697574654       rzold =   0.327956021740695       alpha = 
  0.280032164069997     
 delta_qm =   0.368711E-02 delta_en =   0.917649E+01 tol =   0.100000E-03
 Iteration #          7
  pAp =   4.197313109154525E-002  rzold =   1.969560109792236E-002  alpha = 
  0.469243074932041     
 delta_qm =   0.227924E-02 delta_en =   0.350657E+01 tol =   0.100000E-03
 Iteration #          8
  pAp =   5.937040463071878E-003  rzold =   3.459949340175362E-003  alpha = 
  0.582773414076608     
 delta_qm =   0.265559E-02 delta_en =   0.476022E+01 tol =   0.100000E-03
 Iteration #          9
  pAp =   1.957608892528402E-003  rzold =   2.055832344063869E-003  alpha = 
   1.05017521728184     
 delta_qm =   0.324253E-02 delta_en =   0.709696E+01 tol =   0.100000E-03
 Iteration #         10
  pAp =   2.873287026763352E-003  rzold =   4.867117003256660E-003  alpha = 
   1.69391952767743     
 delta_qm =   0.384224E-02 delta_en =   0.996487E+01 tol =   0.100000E-03
 Iteration #         11
  pAp =   1.917181267802539E-002  rzold =   2.280230952290530E-002  alpha = 
   1.18936638417301     
 delta_qm =   0.455976E-02 delta_en =   0.140342E+02 tol =   0.100000E-03
 Iteration #         12
  pAp =   9.775613620433117E-002  rzold =   4.088206924349545E-002  alpha = 
  0.418204634827661     
 delta_qm =   0.488283E-02 delta_en =   0.160933E+02 tol =   0.100000E-03
 Iteration #         13
  pAp =    2.56451542806388       rzold =   0.101591101211718       alpha = 
  3.961415092301324E-002
 delta_qm =   0.390008E-02 delta_en =   0.102672E+02 tol =   0.100000E-03
 Iteration #         14
  pAp =   8.918803406441928E-003  rzold =   5.629936261320783E-003  alpha = 
  0.631243453270240     
 delta_qm =   0.248227E-02 delta_en =   0.415913E+01 tol =   0.100000E-03
 Iteration #         15
  pAp =   4.115954561390917E-003  rzold =   2.319181375641982E-003  alpha = 
  0.563461365049242     
 delta_qm =   0.163607E-02 delta_en =   0.180678E+01 tol =   0.100000E-03
 Iteration #         16
  pAp =   1.147879882161290E-003  rzold =   8.694912922630647E-004  alpha = 
  0.757475852461095     
 delta_qm =   0.104951E-02 delta_en =   0.743493E+00 tol =   0.100000E-03
 Iteration #         17
  pAp =   2.316801941836245E-003  rzold =   9.176849885386367E-004  alpha = 
  0.396099887507561     
 delta_qm =   0.596878E-03 delta_en =   0.240478E+00 tol =   0.100000E-03
 Iteration #         18
  pAp =   8.435714739567566E-004  rzold =   3.752782522684225E-004  alpha = 
  0.444868353013630     
 delta_qm =   0.232672E-03 delta_en =   0.365419E-01 tol =   0.100000E-03
 Iteration #         19
  pAp =   8.761569257479861E-005  rzold =   4.309689451838467E-005  alpha = 
  0.491885565837333     
 delta_qm =   0.127297E-03 delta_en =   0.109380E-01 tol =   0.100000E-03
 Iteration #         20
  pAp =   1.126458035151587E-005  rzold =   5.565911549231609E-006  alpha = 
  0.494107314746315     
 delta_qm =   0.750563E-04 delta_en =   0.380257E-02 tol =   0.100000E-03
 Iteration #         21
  pAp =   1.441402492587924E-006  rzold =   1.009574287261509E-006  alpha = 
  0.700411087432559     
 delta_qm =   0.365894E-04 delta_en =   0.903678E-03 tol =   0.100000E-03
 Iteration #         22
  pAp =   1.060104939744595E-006  rzold =   5.458207339771678E-007  alpha = 
  0.514874248306653     
 delta_qm =   0.185596E-04 delta_en =   0.232509E-03 tol =   0.100000E-03
 Iteration #         23
  pAp =   1.328141326941781E-005  rzold =   5.665639970957741E-007  alpha = 
  4.265841184238742E-002
 delta_qm =   0.168315E-04 delta_en =   0.191226E-03 tol =   0.100000E-03
 Iteration #         24
  pAp =   3.799646834022743E-007  rzold =   1.754474013088707E-007  alpha = 
  0.461746601652243     
 delta_qm =   0.910307E-05 delta_en =   0.559345E-04 tol =   0.100000E-03
 Charges are converged, EXIT

%%%% ELECTRONS %%%%%%%%%%%%%%%%%%%%%%%%%%%%%%%%%%%%%%%%%%%%%%%%%%%%%%%%%%%%%%%%%
 number of electrons        =         89
 total electronic charge    =     89.0000000
 number of spin components  =  1

%%%% BOUNDARY %%%%%%%%%%%%%%%%%%%%%%%%%%%%%%%%%%%%%%%%%%%%%%%%%%%%%%%%%%%%%%%%%%
 boundary mode              = electronic           
 boundary is built as a function of a smooth density
 function type              =  2 
 using the modified SCCS function with parameters 
 rhomax                     =      0.0050000 
 rhomin                     =      0.0001000 

%%%% DIELECTRIC %%%%%%%%%%%%%%%%%%%%%%%%%%%%%%%%%%%%%%%%%%%%%%%%%%%%%%%%%%%%%%%%%
 dielectric build on homogeneous background
 environment bulk permitt.  =    100.0000000 
 dielectric flags
 need gradient              =  F 
 need factor depend. sqrt   =  T 
 need gradient of logarithm =  T 

%%%% COMPUTE ELECTROSTATIC POTENTIAL %%%%%%%%%%%%%%%%%%%%%%%%%%%%%%%%%%%%%%%%%%%
 Warning: bad guess with residual norm =   0.145215E+06, reset to no guess
 Iteration #          1
  pAp =    1276.28832137451       rzold =    1274.35459276003       alpha = 
  0.998484881055406     
 delta_qm =   0.182824E+00 delta_en =   0.225616E+05 tol =   0.100000E-03
 Iteration #          2
  pAp =    1149.32935653133       rzold =    29.0613177108380       alpha = 
  2.528545672803913E-002
 delta_qm =   0.242062E+00 delta_en =   0.395508E+05 tol =   0.100000E-03
 Iteration #          3
  pAp =    57.1185224734398       rzold =    2.40049892293699       alpha = 
  4.202662847333324E-002
 delta_qm =   0.269109E+00 delta_en =   0.488834E+05 tol =   0.100000E-03
 Iteration #          4
  pAp =    1.75787277954150       rzold =   -1.41842885852309       alpha = 
 -0.806900746761124     
 delta_qm =   0.109812E+00 delta_en =   0.813957E+04 tol =   0.100000E-03
 Iteration #          5
  pAp =  -0.291386486361068       rzold =   0.519177930926436       alpha = 
  -1.78175020197437     
 delta_qm =   0.677663E+00 delta_en =   0.309979E+06 tol =   0.100000E-03
 Iteration #          6
  pAp =    111.505347639889       rzold =    9.55594797876313       alpha = 
  8.569945909342779E-002
 delta_qm =   0.263338E-01 delta_en =   0.468093E+03 tol =   0.100000E-03
 Iteration #          7
  pAp =   0.213008845692427       rzold =   6.539664693522058E-002  alpha = 
  0.307013761436225     
 delta_qm =   0.598281E-02 delta_en =   0.241610E+02 tol =   0.100000E-03
 Iteration #          8
  pAp =   3.120109160152429E-002  rzold =   1.003178262899698E-002  alpha = 
  0.321520245416891     
 delta_qm =   0.353324E-02 delta_en =   0.842657E+01 tol =   0.100000E-03
 Iteration #          9
  pAp =   2.321303777121380E-003  rzold =   9.744837531488329E-004  alpha = 
  0.419800184169466     
 delta_qm =   0.270109E-02 delta_en =   0.492472E+01 tol =   0.100000E-03
 Iteration #         10
  pAp =   7.702505901898216E-004  rzold =   3.557254890753300E-004  alpha = 
  0.461830855576059     
 delta_qm =   0.230992E-02 delta_en =   0.360163E+01 tol =   0.100000E-03
 Iteration #         11
  pAp =   2.608638784755884E-004  rzold =   2.227914942040648E-004  alpha = 
  0.854052678761018     
 delta_qm =   0.220218E-02 delta_en =   0.327348E+01 tol =   0.100000E-03
 Iteration #         12
  pAp =   4.391443293659800E-004  rzold =   3.619486650569577E-004  alpha = 
  0.824213455242666     
 delta_qm =   0.168881E-02 delta_en =   0.192515E+01 tol =   0.100000E-03
 Iteration #         13
  pAp =   2.580005220050598E-002  rzold =   1.142881155289628E-003  alpha = 
  4.429762957096707E-002
 delta_qm =   0.237122E-02 delta_en =   0.379530E+01 tol =   0.100000E-03
 Iteration #         14
  pAp =   2.832237880401431E-003  rzold =   9.592690099777727E-004  alpha = 
  0.338696483305918     
 delta_qm =   0.244860E-02 delta_en =   0.404705E+01 tol =   0.100000E-03
 Iteration #         15
  pAp =   4.142596957521940E-004  rzold =   4.363968417484669E-004  alpha = 
   1.05343784641196     
 delta_qm =   0.419053E-02 delta_en =   0.118534E+02 tol =   0.100000E-03
 Iteration #         16
  pAp =  -5.427898786456850E-004  rzold =   1.849126852655195E-003  alpha = 
  -3.40670842512567     
 delta_qm =   0.275619E-01 delta_en =   0.512768E+03 tol =   0.100000E-03
 Iteration #         17
  pAp =   0.495057523706430       rzold =   4.883685434244060E-002  alpha = 
  9.864884786884062E-002
 delta_qm =   0.269352E-02 delta_en =   0.489718E+01 tol =   0.100000E-03
 Iteration #         18
  pAp =   2.615274571827931E-003  rzold =   7.083631761457427E-004  alpha = 
  0.270856140221880     
 delta_qm =   0.111955E-02 delta_en =   0.846041E+00 tol =   0.100000E-03
 Iteration #         19
  pAp =   1.355483085703724E-004  rzold =   7.249038141507474E-005  alpha = 
  0.534793699601497     
 delta_qm =   0.671670E-03 delta_en =   0.304520E+00 tol =   0.100000E-03
 Iteration #         20
  pAp =   8.175307138153514E-005  rzold =   3.571372268039793E-005  alpha = 
  0.436848696652934     
 delta_qm =   0.458143E-03 delta_en =   0.141679E+00 tol =   0.100000E-03
 Iteration #         21
  pAp =   3.134976673224013E-005  rzold =   1.753261254591171E-005  alpha = 
  0.559258150009810     
 delta_qm =   0.360638E-03 delta_en =   0.877903E-01 tol =   0.100000E-03
 Iteration #         22
  pAp =   1.656815422851422E-005  rzold =   8.872788676325759E-006  alpha = 
  0.535532718608779     
 delta_qm =   0.246240E-03 delta_en =   0.409280E-01 tol =   0.100000E-03
 Iteration #         23
  pAp =   6.233763227189972E-006  rzold =   3.143501688899573E-006  alpha = 
  0.504270305806367     
 delta_qm =   0.160486E-03 delta_en =   0.173852E-01 tol =   0.100000E-03
 Iteration #         24
  pAp =   2.094689681106395E-004  rzold =   6.191589508155576E-006  alpha = 
  2.955850484204055E-002
 delta_qm =   0.137763E-03 delta_en =   0.128107E-01 tol =   0.100000E-03
 Iteration #         25
  pAp =   2.962718327274258E-006  rzold =   1.362144674692765E-006  alpha = 
  0.459761787731592     
 delta_qm =   0.127797E-03 delta_en =   0.110241E-01 tol =   0.100000E-03
 Iteration #         26
  pAp =   7.771909503119707E-006  rzold =   1.922214573502178E-006  alpha = 
  0.247328481209230     
 delta_qm =   0.102655E-03 delta_en =   0.711322E-02 tol =   0.100000E-03
 Iteration #         27
  pAp =   1.429630402193557E-006  rzold =   7.666280192411444E-007  alpha = 
  0.536242107096258     
 delta_qm =   0.861398E-04 delta_en =   0.500855E-02 tol =   0.100000E-03
 Iteration #         28
  pAp =   1.096430661785850E-006  rzold =   5.285699189259469E-007  alpha = 
  0.482082394581177     
 delta_qm =   0.582123E-04 delta_en =   0.228735E-02 tol =   0.100000E-03
 Iteration #         29
  pAp =   3.955018976875779E-007  rzold =   1.570996797894639E-007  alpha = 
  0.397215994937053     
 delta_qm =   0.700433E-04 delta_en =   0.331159E-02 tol =   0.100000E-03
 Iteration #         30
  pAp =   3.015605497265927E-007  rzold =   4.960184146773034E-008  alpha = 
  0.164483854113880     
 delta_qm =   0.989781E-04 delta_en =   0.661274E-02 tol =   0.100000E-03
 Iteration #         31
  pAp =   2.681953370634810E-008  rzold =  -4.202750854652413E-008  alpha = 
  -1.56704844337306     
 delta_qm =   0.764893E-04 delta_en =   0.394917E-02 tol =   0.100000E-03
 Iteration #         32
  pAp =  -2.485639768960997E-007  rzold =   1.441953377669712E-007  alpha = 
 -0.580113577066098     
 delta_qm =   0.203407E-03 delta_en =   0.279277E-01 tol =   0.100000E-03
 Iteration #         33
  pAp =   9.030592995802512E-007  rzold =   3.038564243780914E-007  alpha = 
  0.336474497875528     
 delta_qm =   0.501757E-04 delta_en =   0.169938E-02 tol =   0.100000E-03
 Iteration #         34
  pAp =   1.245796138403693E-007  rzold =   7.892204150438017E-008  alpha = 
  0.633506872203885     
 delta_qm =   0.231631E-04 delta_en =   0.362158E-03 tol =   0.100000E-03
 Iteration #         35
  pAp =   4.005431741879420E-008  rzold =   2.987582103363477E-008  alpha = 
  0.745882665313290     
 delta_qm =   0.152626E-04 delta_en =   0.157239E-03 tol =   0.100000E-03
 Iteration #         36
  pAp =   9.991705990986872E-007  rzold =   3.181469214688550E-008  alpha = 
  3.184110118490706E-002
 delta_qm =   0.142516E-04 delta_en =   0.137098E-03 tol =   0.100000E-03
 Iteration #         37
  pAp =   2.261625279020497E-008  rzold =   1.222495763812122E-008  alpha = 
  0.540538600780754     
 delta_qm =   0.888250E-05 delta_en =   0.532567E-04 tol =   0.100000E-03
 Charges are converged, EXIT

%%%% ELECTRONS %%%%%%%%%%%%%%%%%%%%%%%%%%%%%%%%%%%%%%%%%%%%%%%%%%%%%%%%%%%%%%%%%
 number of electrons        =         89
 total electronic charge    =     89.0000000
 number of spin components  =  1

%%%% BOUNDARY %%%%%%%%%%%%%%%%%%%%%%%%%%%%%%%%%%%%%%%%%%%%%%%%%%%%%%%%%%%%%%%%%%
 boundary mode              = electronic           
 boundary is built as a function of a smooth density
 function type              =  2 
 using the modified SCCS function with parameters 
 rhomax                     =      0.0050000 
 rhomin                     =      0.0001000 

%%%% DIELECTRIC %%%%%%%%%%%%%%%%%%%%%%%%%%%%%%%%%%%%%%%%%%%%%%%%%%%%%%%%%%%%%%%%%
 dielectric build on homogeneous background
 environment bulk permitt.  =    100.0000000 
 dielectric flags
 need gradient              =  F 
 need factor depend. sqrt   =  T 
 need gradient of logarithm =  T 

%%%% COMPUTE ELECTROSTATIC POTENTIAL %%%%%%%%%%%%%%%%%%%%%%%%%%%%%%%%%%%%%%%%%%%
 Warning: bad guess with residual norm =   0.159270E+04, reset to no guess
 Iteration #          1
  pAp =    1276.07762524460       rzold =    1273.20229485234       alpha = 
  0.997746743352146     
 delta_qm =   0.104949E+00 delta_en =   0.743471E+04 tol =   0.100000E-03
 Iteration #          2
  pAp =    2357.16790101809       rzold =    70.9493779985686       alpha = 
  3.009941632410853E-002
 delta_qm =   0.104052E+00 delta_en =   0.730805E+04 tol =   0.100000E-03
 Iteration #          3
  pAp =    24.0946556662153       rzold =    3.26892688685325       alpha = 
  0.135670205548396     
 delta_qm =   0.121042E+00 delta_en =   0.988954E+04 tol =   0.100000E-03
 Iteration #          4
  pAp =   -4.12461778484956       rzold =   0.862752894210406       alpha = 
 -0.209171598245890     
 delta_qm =   0.737333E-01 delta_en =   0.366970E+04 tol =   0.100000E-03
 Iteration #          5
  pAp =   0.747335965359124       rzold =  -0.509493048543806       alpha = 
 -0.681745656786336     
 delta_qm =   0.176108E-01 delta_en =   0.209346E+03 tol =   0.100000E-03
 Iteration #          6
  pAp =   0.664674332322185       rzold =   0.213340922903426       alpha = 
  0.320970605496489     
 delta_qm =   0.594550E-02 delta_en =   0.238606E+02 tol =   0.100000E-03
 Iteration #          7
  pAp =   3.995278069911257E-002  rzold =   1.752328158637370E-002  alpha = 
  0.438599799056363     
 delta_qm =   0.137417E-02 delta_en =   0.127462E+01 tol =   0.100000E-03
 Iteration #          8
  pAp =   3.567872553801007E-003  rzold =   1.641481675465909E-003  alpha = 
  0.460072956842914     
 delta_qm =   0.100441E-02 delta_en =   0.680971E+00 tol =   0.100000E-03
 Iteration #          9
  pAp =   8.071354580302639E-004  rzold =   2.870292326281685E-004  alpha = 
  0.355614698589299     
 delta_qm =   0.941538E-03 delta_en =   0.598383E+00 tol =   0.100000E-03
 Iteration #         10
  pAp =   1.770170599284179E-004  rzold =   1.053117450105539E-004  alpha = 
  0.594924269181399     
 delta_qm =   0.735314E-03 delta_en =   0.364964E+00 tol =   0.100000E-03
 Iteration #         11
  pAp =   1.183869330693363E-004  rzold =   1.098099274071870E-004  alpha = 
  0.927551078148751     
 delta_qm =   0.497471E-03 delta_en =   0.167047E+00 tol =   0.100000E-03
 Iteration #         12
  pAp =   3.260082136630234E-004  rzold =   1.295557967019402E-004  alpha = 
  0.397400406714460     
 delta_qm =   0.722135E-03 delta_en =   0.351999E+00 tol =   0.100000E-03
 Iteration #         13
  pAp =   1.115361822180566E-002  rzold =   5.096286056009322E-004  alpha = 
  4.569177422664451E-002
 delta_qm =   0.629134E-03 delta_en =   0.267172E+00 tol =   0.100000E-03
 Iteration #         14
  pAp =   1.471793764267413E-004  rzold =   8.434857831231539E-005  alpha = 
  0.573100527805946     
 delta_qm =   0.717529E-03 delta_en =   0.347522E+00 tol =   0.100000E-03
 Iteration #         15
  pAp =   1.176002640429526E-004  rzold =   8.127733028922322E-005  alpha = 
  0.691132209189065     
 delta_qm =   0.774635E-03 delta_en =   0.405041E+00 tol =   0.100000E-03
 Iteration #         16
  pAp =   8.881994331724225E-005  rzold =   1.191430070067755E-004  alpha = 
   1.34139926864428     
 delta_qm =   0.979786E-03 delta_en =   0.647987E+00 tol =   0.100000E-03
 Iteration #         17
  pAp =   2.449521263572742E-004  rzold =   2.824331196602230E-004  alpha = 
   1.15301354538266     
 delta_qm =   0.844273E-03 delta_en =   0.481138E+00 tol =   0.100000E-03
 Iteration #         18
  pAp =   5.784691982987998E-004  rzold =   3.517387319992194E-004  alpha = 
  0.608050926537897     
 delta_qm =   0.449737E-03 delta_en =   0.136528E+00 tol =   0.100000E-03
 Iteration #         19
  pAp =   1.288369131058502E-004  rzold =   6.416892108271924E-005  alpha = 
  0.498063167890395     
 delta_qm =   0.275667E-03 delta_en =   0.512948E-01 tol =   0.100000E-03
 Iteration #         20
  pAp =   2.032635987198025E-005  rzold =   1.029232317928072E-005  alpha = 
  0.506353486020319     
 delta_qm =   0.149687E-03 delta_en =   0.151243E-01 tol =   0.100000E-03
 Iteration #         21
  pAp =   3.377632770761803E-006  rzold =   2.569974371243221E-006  alpha = 
  0.760880340068343     
 delta_qm =   0.710944E-04 delta_en =   0.341173E-02 tol =   0.100000E-03
 Iteration #         22
  pAp =   1.941033968937119E-006  rzold =   9.611229338108329E-007  alpha = 
  0.495160285287088     
 delta_qm =   0.394791E-04 delta_en =   0.105206E-02 tol =   0.100000E-03
 Iteration #         23
  pAp =   5.675015032711770E-005  rzold =   2.194199988940056E-006  alpha = 
  3.866421456669819E-002
 delta_qm =   0.393066E-04 delta_en =   0.104288E-02 tol =   0.100000E-03
 Iteration #         24
  pAp =   9.513779559738476E-007  rzold =   4.121522577305178E-007  alpha = 
  0.433216110529523     
 delta_qm =   0.212404E-04 delta_en =   0.304528E-03 tol =   0.100000E-03
 Iteration #         25
  pAp =   1.352898434991359E-007  rzold =   7.296606858279145E-008  alpha = 
  0.539331458264696     
 delta_qm =   0.136086E-04 delta_en =   0.125006E-03 tol =   0.100000E-03
 Iteration #         26
  pAp =   3.152925090890150E-008  rzold =   2.221775822679475E-008  alpha = 
  0.704671300025150     
 delta_qm =   0.825964E-05 delta_en =   0.460496E-04 tol =   0.100000E-03
 Charges are converged, EXIT

%%%% ELECTRONS %%%%%%%%%%%%%%%%%%%%%%%%%%%%%%%%%%%%%%%%%%%%%%%%%%%%%%%%%%%%%%%%%
 number of electrons        =         89
 total electronic charge    =     89.0000000
 number of spin components  =  1

%%%% BOUNDARY %%%%%%%%%%%%%%%%%%%%%%%%%%%%%%%%%%%%%%%%%%%%%%%%%%%%%%%%%%%%%%%%%%
 boundary mode              = electronic           
 boundary is built as a function of a smooth density
 function type              =  2 
 using the modified SCCS function with parameters 
 rhomax                     =      0.0050000 
 rhomin                     =      0.0001000 

%%%% DIELECTRIC %%%%%%%%%%%%%%%%%%%%%%%%%%%%%%%%%%%%%%%%%%%%%%%%%%%%%%%%%%%%%%%%%
 dielectric build on homogeneous background
 environment bulk permitt.  =    100.0000000 
 dielectric flags
 need gradient              =  F 
 need factor depend. sqrt   =  T 
 need gradient of logarithm =  T 

%%%% COMPUTE ELECTROSTATIC POTENTIAL %%%%%%%%%%%%%%%%%%%%%%%%%%%%%%%%%%%%%%%%%%%
 Warning: bad guess with residual norm =   0.549534E+03, reset to no guess
 Iteration #          1
  pAp =    1273.60402954694       rzold =    1271.18039190883       alpha = 
  0.998097024206984     
 delta_qm =   0.115941E+00 delta_en =   0.907349E+04 tol =   0.100000E-03
 Iteration #          2
  pAp =    1825.08380131054       rzold =    54.1427155693680       alpha = 
  2.966587919441818E-002
 delta_qm =   0.126663E+00 delta_en =   0.108293E+05 tol =   0.100000E-03
 Iteration #          3
  pAp =    31.8623027658809       rzold =    3.63303321872536       alpha = 
  0.114022933164006     
 delta_qm =   0.144249E+00 delta_en =   0.140452E+05 tol =   0.100000E-03
 Iteration #          4
  pAp =   -2.91822054925991       rzold =   0.350508131071176       alpha = 
 -0.120110226473482     
 delta_qm =   0.109644E+00 delta_en =   0.811469E+04 tol =   0.100000E-03
 Iteration #          5
  pAp =   0.183426047479696       rzold =  -0.237544685635986       alpha = 
  -1.29504336434159     
 delta_qm =   0.262898E-01 delta_en =   0.466530E+03 tol =   0.100000E-03
 Iteration #          6
  pAp =   0.620099300721862       rzold =   0.219905931626244       alpha = 
  0.354630188052542     
 delta_qm =   0.793066E-02 delta_en =   0.424543E+02 tol =   0.100000E-03
 Iteration #          7
  pAp =   5.554335064856737E-002  rzold =   2.235968505365377E-002  alpha = 
  0.402562769306581     
 delta_qm =   0.186538E-02 delta_en =   0.234876E+01 tol =   0.100000E-03
 Iteration #          8
  pAp =   5.465922054049260E-003  rzold =   2.408237222104617E-003  alpha = 
  0.440591211929293     
 delta_qm =   0.133385E-02 delta_en =   0.120093E+01 tol =   0.100000E-03
 Iteration #          9
  pAp =   8.778044997960125E-004  rzold =   3.257434033290393E-004  alpha = 
  0.371088782758276     
 delta_qm =   0.125672E-02 delta_en =   0.106607E+01 tol =   0.100000E-03
 Iteration #         10
  pAp =   2.760373905731284E-004  rzold =   1.474959148211926E-004  alpha = 
  0.534333100725779     
 delta_qm =   0.944404E-03 delta_en =   0.602032E+00 tol =   0.100000E-03
 Iteration #         11
  pAp =   1.171103198469595E-004  rzold =   1.150055558675872E-004  alpha = 
  0.982027510623122     
 delta_qm =   0.451255E-03 delta_en =   0.137451E+00 tol =   0.100000E-03
 Iteration #         12
  pAp =   2.060209122655925E-004  rzold =   8.590903898351595E-005  alpha = 
  0.416991838540964     
 delta_qm =   0.544767E-03 delta_en =   0.200321E+00 tol =   0.100000E-03
 Iteration #         13
  pAp =   8.806196124786040E-003  rzold =   3.817152201861265E-004  alpha = 
  4.334620928004836E-002
 delta_qm =   0.415053E-03 delta_en =   0.116281E+00 tol =   0.100000E-03
 Iteration #         14
  pAp =   1.238207565543444E-004  rzold =   5.025274286484775E-005  alpha = 
  0.405850717305156     
 delta_qm =   0.465829E-03 delta_en =   0.146473E+00 tol =   0.100000E-03
 Iteration #         15
  pAp =   4.886230283649496E-005  rzold =   2.854857759411726E-005  alpha = 
  0.584265905142614     
 delta_qm =   0.547093E-03 delta_en =   0.202035E+00 tol =   0.100000E-03
 Iteration #         16
  pAp =   2.184582129876293E-005  rzold =   3.241529437184238E-005  alpha = 
   1.48382127311817     
 delta_qm =   0.766686E-03 delta_en =   0.396770E+00 tol =   0.100000E-03
 Iteration #         17
  pAp =   4.644691617770244E-005  rzold =   9.888478339962486E-005  alpha = 
   2.12898490442937     
 delta_qm =   0.997735E-03 delta_en =   0.671946E+00 tol =   0.100000E-03
 Iteration #         18
  pAp =   4.440551368447508E-004  rzold =   4.382770844146172E-004  alpha = 
  0.986987984259816     
 delta_qm =   0.136155E-02 delta_en =   0.125133E+01 tol =   0.100000E-03
 Iteration #         19
  pAp =   5.473569366815330E-004  rzold =   3.259880790545689E-004  alpha = 
  0.595567640068545     
 delta_qm =   0.955402E-03 delta_en =   0.616135E+00 tol =   0.100000E-03
 Iteration #         20
  pAp =   2.319363069256687E-004  rzold =   1.179058679922661E-004  alpha = 
  0.508354511439439     
 delta_qm =   0.590265E-03 delta_en =   0.235179E+00 tol =   0.100000E-03
 Iteration #         21
  pAp =   6.021308035999838E-005  rzold =   3.836753505697948E-005  alpha = 
  0.637196018333391     
 delta_qm =   0.331564E-03 delta_en =   0.742060E-01 tol =   0.100000E-03
 Iteration #         22
  pAp =   3.254430229587357E-005  rzold =   1.672820560372255E-005  alpha = 
  0.514013342539643     
 delta_qm =   0.167050E-03 delta_en =   0.188364E-01 tol =   0.100000E-03
 Iteration #         23
  pAp =   1.677953254341087E-004  rzold =   1.013794962435012E-005  alpha = 
  6.041854621469285E-002
 delta_qm =   0.177835E-03 delta_en =   0.213471E-01 tol =   0.100000E-03
 Iteration #         24
  pAp =   4.483805467942194E-005  rzold =   1.061035582745483E-005  alpha = 
  0.236637291767352     
 delta_qm =   0.670263E-04 delta_en =   0.303245E-02 tol =   0.100000E-03
 Iteration #         25
  pAp =   2.438095915175945E-006  rzold =   1.041578050017302E-006  alpha = 
  0.427209628437500     
 delta_qm =   0.437185E-04 delta_en =   0.129013E-02 tol =   0.100000E-03
 Iteration #         26
  pAp =   2.437781463566857E-007  rzold =   1.818653229799145E-007  alpha = 
  0.746028000039909     
 delta_qm =   0.306622E-04 delta_en =   0.634614E-03 tol =   0.100000E-03
 Iteration #         27
  pAp =   2.655407655134948E-007  rzold =   7.891841731451007E-008  alpha = 
  0.297198877023270     
 delta_qm =   0.218783E-04 delta_en =   0.323096E-03 tol =   0.100000E-03
 Iteration #         28
  pAp =   5.341473430572307E-007  rzold =  -3.394470424749108E-009  alpha = 
 -6.354932714484008E-003
 delta_qm =   0.222431E-04 delta_en =   0.333960E-03 tol =   0.100000E-03
 Iteration #         29
  pAp =  -7.551815139595973E-011  rzold =   3.472348309672867E-009  alpha = 
  -45.9803139442134     
 delta_qm =   0.962974E-04 delta_en =   0.625940E-02 tol =   0.100000E-03
 Iteration #         30
  pAp =   5.682290148503776E-006  rzold =   9.105929921503391E-007  alpha = 
  0.160251055182409     
 delta_qm =   0.192137E-04 delta_en =   0.249186E-03 tol =   0.100000E-03
 Iteration #         31
  pAp =   5.802279133725073E-008  rzold =   4.296021103707333E-008  alpha = 
  0.740402349610726     
 delta_qm =   0.963128E-05 delta_en =   0.626140E-04 tol =   0.100000E-03
 Charges are converged, EXIT

%%%% ELECTRONS %%%%%%%%%%%%%%%%%%%%%%%%%%%%%%%%%%%%%%%%%%%%%%%%%%%%%%%%%%%%%%%%%
 number of electrons        =         89
 total electronic charge    =     89.0000000
 number of spin components  =  1

%%%% BOUNDARY %%%%%%%%%%%%%%%%%%%%%%%%%%%%%%%%%%%%%%%%%%%%%%%%%%%%%%%%%%%%%%%%%%
 boundary mode              = electronic           
 boundary is built as a function of a smooth density
 function type              =  2 
 using the modified SCCS function with parameters 
 rhomax                     =      0.0050000 
 rhomin                     =      0.0001000 

%%%% DIELECTRIC %%%%%%%%%%%%%%%%%%%%%%%%%%%%%%%%%%%%%%%%%%%%%%%%%%%%%%%%%%%%%%%%%
 dielectric build on homogeneous background
 environment bulk permitt.  =    100.0000000 
 dielectric flags
 need gradient              =  F 
 need factor depend. sqrt   =  T 
 need gradient of logarithm =  T 

%%%% COMPUTE ELECTROSTATIC POTENTIAL %%%%%%%%%%%%%%%%%%%%%%%%%%%%%%%%%%%%%%%%%%%
 Warning: bad guess with residual norm =   0.107573E+03, reset to no guess
 Iteration #          1
  pAp =    1272.34105216486       rzold =    1270.04597190667       alpha = 
  0.998196175267403     
 delta_qm =   0.112355E+00 delta_en =   0.852100E+04 tol =   0.100000E-03
 Iteration #          2
  pAp =    1662.93338915952       rzold =    49.9094830774897       alpha = 
  3.001291777701037E-002
 delta_qm =   0.118835E+00 delta_en =   0.953219E+04 tol =   0.100000E-03
 Iteration #          3
  pAp =    36.1984293935829       rzold =    4.01206119729817       alpha = 
  0.110835228613798     
 delta_qm =   0.133709E+00 delta_en =   0.120676E+05 tol =   0.100000E-03
 Iteration #          4
  pAp =   -2.95834949204362       rzold =   0.449268559966273       alpha = 
 -0.151864599221480     
 delta_qm =   0.945852E-01 delta_en =   0.603880E+04 tol =   0.100000E-03
 Iteration #          5
  pAp =   0.287273512189907       rzold =  -0.289695923693564       alpha = 
  -1.00843242206770     
 delta_qm =   0.236633E-01 delta_en =   0.377967E+03 tol =   0.100000E-03
 Iteration #          6
  pAp =   0.550219547787937       rzold =   0.197814384139757       alpha = 
  0.359519004613769     
 delta_qm =   0.725859E-02 delta_en =   0.355638E+02 tol =   0.100000E-03
 Iteration #          7
  pAp =   4.886631679487703E-002  rzold =   1.934947634383260E-002  alpha = 
  0.395967562381561     
 delta_qm =   0.198890E-02 delta_en =   0.267010E+01 tol =   0.100000E-03
 Iteration #          8
  pAp =   5.922928887142775E-003  rzold =   2.524873636093947E-003  alpha = 
  0.426288021383277     
 delta_qm =   0.140837E-02 delta_en =   0.133887E+01 tol =   0.100000E-03
 Iteration #          9
  pAp =   5.643902976925739E-004  rzold =   2.764746463711913E-004  alpha = 
  0.489864279208053     
 delta_qm =   0.128621E-02 delta_en =   0.111668E+01 tol =   0.100000E-03
 Iteration #         10
  pAp =   2.265396619753318E-004  rzold =   1.347502130186767E-004  alpha = 
  0.594819520095116     
 delta_qm =   0.897328E-03 delta_en =   0.543508E+00 tol =   0.100000E-03
 Iteration #         11
  pAp =   2.435676921108969E-004  rzold =   1.595393159653293E-004  alpha = 
  0.655010172255074     
 delta_qm =   0.427754E-03 delta_en =   0.123507E+00 tol =   0.100000E-03
 Iteration #         12
  pAp =   1.901785639993990E-004  rzold =   9.516326442221645E-005  alpha = 
  0.500389015570215     
 delta_qm =   0.421512E-03 delta_en =   0.119929E+00 tol =   0.100000E-03
 Iteration #         13
  pAp =   2.008518603579021E-003  rzold =   8.939717863782252E-005  alpha = 
  4.450901200443143E-002
 delta_qm =   0.345191E-03 delta_en =   0.804307E-01 tol =   0.100000E-03
 Iteration #         14
  pAp =   1.590067885536755E-004  rzold =   4.755618533033425E-005  alpha = 
  0.299082735793263     
 delta_qm =   0.314130E-03 delta_en =   0.666073E-01 tol =   0.100000E-03
 Iteration #         15
  pAp =   3.076215555112403E-005  rzold =   1.441458586579347E-005  alpha = 
  0.468581788484805     
 delta_qm =   0.321009E-03 delta_en =   0.695566E-01 tol =   0.100000E-03
 Iteration #         16
  pAp =   1.456503864911602E-005  rzold =   1.273643993367838E-005  alpha = 
  0.874452875856350     
 delta_qm =   0.402671E-03 delta_en =   0.109447E+00 tol =   0.100000E-03
 Iteration #         17
  pAp =   1.191788072142707E-005  rzold =   2.226543003045130E-005  alpha = 
   1.86823736122987     
 delta_qm =   0.620613E-03 delta_en =   0.259983E+00 tol =   0.100000E-03
 Iteration #         18
  pAp =   6.306399878133763E-005  rzold =   1.142727405351837E-004  alpha = 
   1.81201228503449     
 delta_qm =   0.136256E-02 delta_en =   0.125319E+01 tol =   0.100000E-03
 Iteration #         19
  pAp =   3.019012334943222E-004  rzold =   2.926993530201240E-004  alpha = 
  0.969520228958020     
 delta_qm =   0.172734E-02 delta_en =   0.201399E+01 tol =   0.100000E-03
 Iteration #         20
  pAp =   3.524655173902816E-004  rzold =   3.072816864064936E-004  alpha = 
  0.871806378909525     
 delta_qm =   0.142947E-02 delta_en =   0.137928E+01 tol =   0.100000E-03
 Iteration #         21
  pAp =   2.248094490676425E-004  rzold =   2.445023725393705E-004  alpha = 
   1.08759829070086     
 delta_qm =   0.103013E-02 delta_en =   0.716291E+00 tol =   0.100000E-03
 Iteration #         22
  pAp =   2.733720484901983E-004  rzold =   1.797153616245787E-004  alpha = 
  0.657402110483224     
 delta_qm =   0.665768E-03 delta_en =   0.299192E+00 tol =   0.100000E-03
 Iteration #         23
  pAp =   1.406339333796257E-004  rzold =   7.275627956152671E-005  alpha = 
  0.517345122994813     
 delta_qm =   0.461116E-03 delta_en =   0.143524E+00 tol =   0.100000E-03
 Iteration #         24
  pAp =   2.216226889359818E-003  rzold =   9.270962224522903E-005  alpha = 
  4.183218906436482E-002
 delta_qm =   0.410581E-03 delta_en =   0.113789E+00 tol =   0.100000E-03
 Iteration #         25
  pAp =   1.866629808010835E-004  rzold =   3.697535445156537E-005  alpha = 
  0.198086167342243     
 delta_qm =   0.363489E-03 delta_en =   0.891837E-01 tol =   0.100000E-03
 Iteration #         26
  pAp =   5.657939736799464E-005  rzold =   2.142801511463825E-005  alpha = 
  0.378724696823290     
 delta_qm =   0.259211E-03 delta_en =   0.453535E-01 tol =   0.100000E-03
 Iteration #         27
  pAp =   1.974628528861942E-005  rzold =   1.018943930450041E-005  alpha = 
  0.516018033547454     
 delta_qm =   0.143728E-03 delta_en =   0.139439E-01 tol =   0.100000E-03
 Iteration #         28
  pAp =   7.319517129139375E-006  rzold =   3.405937735810652E-006  alpha = 
  0.465322735874398     
 delta_qm =   0.139220E-03 delta_en =   0.130830E-01 tol =   0.100000E-03
 Iteration #         29
  pAp =  -1.109119947586015E-006  rzold =  -8.611408611206901E-007  alpha = 
  0.776418152964386     
 delta_qm =   0.410127E-03 delta_en =   0.113538E+00 tol =   0.100000E-03
 Iteration #         30
  pAp =   6.313212628204357E-005  rzold =   7.671673750178549E-006  alpha = 
  0.121517747016871     
 delta_qm =   0.128293E-03 delta_en =   0.111100E-01 tol =   0.100000E-03
 Iteration #         31
  pAp =   8.274024396393207E-007  rzold =   9.787254417207997E-007  alpha = 
   1.18288923845504     
 delta_qm =   0.865881E-04 delta_en =   0.506082E-02 tol =   0.100000E-03
 Iteration #         32
  pAp =   5.784271185277756E-007  rzold =   4.844403957407455E-007  alpha = 
  0.837513284255678     
 delta_qm =   0.418634E-04 delta_en =   0.118297E-02 tol =   0.100000E-03
 Iteration #         33
  pAp =   2.369267378976632E-007  rzold =   1.599582988287395E-007  alpha = 
  0.675138231539874     
 delta_qm =   0.237482E-04 delta_en =   0.380684E-03 tol =   0.100000E-03
 Iteration #         34
  pAp =   1.433622706458645E-007  rzold =   7.636393969611382E-008  alpha = 
  0.532664133680954     
 delta_qm =   0.104159E-04 delta_en =   0.732313E-04 tol =   0.100000E-03
 Charges are converged, EXIT

%%%% ELECTRONS %%%%%%%%%%%%%%%%%%%%%%%%%%%%%%%%%%%%%%%%%%%%%%%%%%%%%%%%%%%%%%%%%
 number of electrons        =         89
 total electronic charge    =     89.0000000
 number of spin components  =  1

%%%% BOUNDARY %%%%%%%%%%%%%%%%%%%%%%%%%%%%%%%%%%%%%%%%%%%%%%%%%%%%%%%%%%%%%%%%%%
 boundary mode              = electronic           
 boundary is built as a function of a smooth density
 function type              =  2 
 using the modified SCCS function with parameters 
 rhomax                     =      0.0050000 
 rhomin                     =      0.0001000 

%%%% DIELECTRIC %%%%%%%%%%%%%%%%%%%%%%%%%%%%%%%%%%%%%%%%%%%%%%%%%%%%%%%%%%%%%%%%%
 dielectric build on homogeneous background
 environment bulk permitt.  =    100.0000000 
 dielectric flags
 need gradient              =  F 
 need factor depend. sqrt   =  T 
 need gradient of logarithm =  T 

%%%% COMPUTE ELECTROSTATIC POTENTIAL %%%%%%%%%%%%%%%%%%%%%%%%%%%%%%%%%%%%%%%%%%%
 Warning: bad guess with residual norm =   0.872887E+02, reset to no guess
 Iteration #          1
  pAp =    1271.51107017125       rzold =    1269.49075437365       alpha = 
  0.998411090673925     
 delta_qm =   0.962014E-01 delta_en =   0.624693E+04 tol =   0.100000E-03
 Iteration #          2
  pAp =    1222.95924406376       rzold =    39.2995273476074       alpha = 
  3.213478089181394E-002
 delta_qm =   0.966336E-01 delta_en =   0.630318E+04 tol =   0.100000E-03
 Iteration #          3
  pAp =    41.1870752491172       rzold =    4.61014107869288       alpha = 
  0.111931741955668     
 delta_qm =   0.103964E+00 delta_en =   0.729578E+04 tol =   0.100000E-03
 Iteration #          4
  pAp =   -3.11854330779499       rzold =   0.750705496834347       alpha = 
 -0.240723127031109     
 delta_qm =   0.619394E-01 delta_en =   0.258963E+04 tol =   0.100000E-03
 Iteration #          5
  pAp =   0.817933323781744       rzold =  -0.495458142247305       alpha = 
 -0.605743925380783     
 delta_qm =   0.153978E-01 delta_en =   0.160037E+03 tol =   0.100000E-03
 Iteration #          6
  pAp =   0.554182783533697       rzold =   0.188932647924217       alpha = 
  0.340921178964646     
 delta_qm =   0.504570E-02 delta_en =   0.171849E+02 tol =   0.100000E-03
 Iteration #          7
  pAp =   4.226886693051170E-002  rzold =   1.635452276379620E-002  alpha = 
  0.386916516846367     
 delta_qm =   0.160301E-02 delta_en =   0.173450E+01 tol =   0.100000E-03
 Iteration #          8
  pAp =   5.223476697846702E-003  rzold =   2.198980172270030E-003  alpha = 
  0.420980182256107     
 delta_qm =   0.105432E-02 delta_en =   0.750321E+00 tol =   0.100000E-03
 Iteration #          9
  pAp =   1.172669109382942E-003  rzold =   3.863173903242608E-004  alpha = 
  0.329434268570049     
 delta_qm =   0.102388E-02 delta_en =   0.707616E+00 tol =   0.100000E-03
 Iteration #         10
  pAp =   2.550342086036731E-004  rzold =   1.369834096774811E-004  alpha = 
  0.537117786776422     
 delta_qm =   0.817592E-03 delta_en =   0.451208E+00 tol =   0.100000E-03
 Iteration #         11
  pAp =   8.676721776976162E-005  rzold =   8.765417093113447E-005  alpha = 
   1.01022221507351     
 delta_qm =   0.310115E-03 delta_en =   0.649158E-01 tol =   0.100000E-03
 Iteration #         12
  pAp =   1.171483307593541E-004  rzold =   6.111123929353359E-005  alpha = 
  0.521656936103240     
 delta_qm =   0.212707E-03 delta_en =   0.305398E-01 tol =   0.100000E-03
 Iteration #         13
  pAp =   9.723989740468786E-004  rzold =   4.457048860305015E-005  alpha = 
  4.583559813680083E-002
 delta_qm =   0.171150E-03 delta_en =   0.197724E-01 tol =   0.100000E-03
 Iteration #         14
  pAp =   1.021843846294300E-004  rzold =   2.387319152321827E-005  alpha = 
  0.233628568687809     
 delta_qm =   0.130839E-03 delta_en =   0.115552E-01 tol =   0.100000E-03
 Iteration #         15
  pAp =   1.360920025431124E-005  rzold =   5.031090821918082E-006  alpha = 
  0.369683062039174     
 delta_qm =   0.109621E-03 delta_en =   0.811126E-02 tol =   0.100000E-03
 Iteration #         16
  pAp =   3.603594951391205E-006  rzold =   2.329110618437182E-006  alpha = 
  0.646329748446896     
 delta_qm =   0.120704E-03 delta_en =   0.983439E-02 tol =   0.100000E-03
 Iteration #         17
  pAp =   1.491608473603988E-006  rzold =   2.009442683061534E-006  alpha = 
   1.34716496897230     
 delta_qm =   0.154628E-03 delta_en =   0.161391E-01 tol =   0.100000E-03
 Iteration #         18
  pAp =   3.865850814881728E-006  rzold =   6.795185037985129E-006  alpha = 
   1.75774631856636     
 delta_qm =   0.251156E-03 delta_en =   0.425787E-01 tol =   0.100000E-03
 Iteration #         19
  pAp =   1.742778331245605E-005  rzold =   1.933640000893821E-005  alpha = 
   1.10951574633809     
 delta_qm =   0.341180E-03 delta_en =   0.785725E-01 tol =   0.100000E-03
 Iteration #         20
  pAp =   2.738026368400032E-005  rzold =   2.029075097963940E-005  alpha = 
  0.741072153789969     
 delta_qm =   0.323855E-03 delta_en =   0.707955E-01 tol =   0.100000E-03
 Iteration #         21
  pAp =   9.835226619132673E-006  rzold =   1.070211054303805E-005  alpha = 
   1.08814071678013     
 delta_qm =   0.172108E-03 delta_en =   0.199944E-01 tol =   0.100000E-03
 Iteration #         22
  pAp =   1.164489100500462E-005  rzold =   7.079365181808984E-006  alpha = 
  0.607937436148306     
 delta_qm =   0.108585E-03 delta_en =   0.795872E-02 tol =   0.100000E-03
 Iteration #         23
  pAp =   5.096212863532840E-006  rzold =   2.457743157479568E-006  alpha = 
  0.482268543974396     
 delta_qm =   0.776440E-04 delta_en =   0.406930E-02 tol =   0.100000E-03
 Iteration #         24
  pAp =   5.723052023070485E-005  rzold =   2.406369781493100E-006  alpha = 
  4.204696675467322E-002
 delta_qm =   0.694035E-04 delta_en =   0.325137E-02 tol =   0.100000E-03
 Iteration #         25
  pAp =   3.613408142572115E-006  rzold =   9.654597226086424E-007  alpha = 
  0.267188118395450     
 delta_qm =   0.559103E-04 delta_en =   0.211002E-02 tol =   0.100000E-03
 Iteration #         26
  pAp =   2.517033176774168E-006  rzold =   7.168415589018298E-007  alpha = 
  0.284796229750350     
 delta_qm =   0.372104E-04 delta_en =   0.934615E-03 tol =   0.100000E-03
 Iteration #         27
  pAp =   5.370128466511110E-007  rzold =   2.845769268138088E-007  alpha = 
  0.529925733785460     
 delta_qm =   0.314368E-04 delta_en =   0.667083E-03 tol =   0.100000E-03
 Iteration #         28
  pAp =   1.113386462511315E-007  rzold =   1.282380022505791E-007  alpha = 
   1.15178337952242     
 delta_qm =   0.447268E-04 delta_en =   0.135033E-02 tol =   0.100000E-03
 Iteration #         29
  pAp =  -3.761047282727237E-007  rzold =   3.053730980711634E-007  alpha = 
 -0.811936344096501     
 delta_qm =   0.422245E-04 delta_en =   0.120346E-02 tol =   0.100000E-03
 Iteration #         30
  pAp =   5.389431153141989E-006  rzold =  -7.276927621338032E-007  alpha = 
 -0.135022183502533     
 delta_qm =   0.302971E-04 delta_en =   0.619591E-03 tol =   0.100000E-03
 Iteration #         31
  pAp =   5.362532876972909E-007  rzold =   2.327839721221118E-007  alpha = 
  0.434093323924786     
 delta_qm =   0.101338E-04 delta_en =   0.693180E-04 tol =   0.100000E-03
 Charges are converged, EXIT

%%%% ELECTRONS %%%%%%%%%%%%%%%%%%%%%%%%%%%%%%%%%%%%%%%%%%%%%%%%%%%%%%%%%%%%%%%%%
 number of electrons        =         89
 total electronic charge    =     89.0000000
 number of spin components  =  1

%%%% BOUNDARY %%%%%%%%%%%%%%%%%%%%%%%%%%%%%%%%%%%%%%%%%%%%%%%%%%%%%%%%%%%%%%%%%%
 boundary mode              = electronic           
 boundary is built as a function of a smooth density
 function type              =  2 
 using the modified SCCS function with parameters 
 rhomax                     =      0.0050000 
 rhomin                     =      0.0001000 

%%%% DIELECTRIC %%%%%%%%%%%%%%%%%%%%%%%%%%%%%%%%%%%%%%%%%%%%%%%%%%%%%%%%%%%%%%%%%
 dielectric build on homogeneous background
 environment bulk permitt.  =    100.0000000 
 dielectric flags
 need gradient              =  F 
 need factor depend. sqrt   =  T 
 need gradient of logarithm =  T 

%%%% COMPUTE ELECTROSTATIC POTENTIAL %%%%%%%%%%%%%%%%%%%%%%%%%%%%%%%%%%%%%%%%%%%
 Warning: bad guess with residual norm =   0.363179E+02, reset to no guess
 Iteration #          1
  pAp =    1271.95929464140       rzold =    1269.81415316249       alpha = 
  0.998313514050372     
 delta_qm =   0.815177E-01 delta_en =   0.448546E+04 tol =   0.100000E-03
 Iteration #          2
  pAp =    1258.22072761658       rzold =    41.6279320312788       alpha = 
  3.308476097841252E-002
 delta_qm =   0.764843E-01 delta_en =   0.394865E+04 tol =   0.100000E-03
 Iteration #          3
  pAp =    46.1179310173185       rzold =    5.25793201881495       alpha = 
  0.114010579027070     
 delta_qm =   0.784698E-01 delta_en =   0.415632E+04 tol =   0.100000E-03
 Iteration #          4
  pAp =   -2.87479625673148       rzold =   0.957792245433895       alpha = 
 -0.333168739590215     
 delta_qm =   0.419363E-01 delta_en =   0.118709E+04 tol =   0.100000E-03
 Iteration #          5
  pAp =    1.98348336951151       rzold =  -0.828427052482900       alpha = 
 -0.417662716621075     
 delta_qm =   0.105491E-01 delta_en =   0.751164E+02 tol =   0.100000E-03
 Iteration #          6
  pAp =   0.671647019217980       rzold =   0.212447894508484       alpha = 
  0.316308847399998     
 delta_qm =   0.345510E-02 delta_en =   0.805797E+01 tol =   0.100000E-03
 Iteration #          7
  pAp =   3.828292379449350E-002  rzold =   1.482236139832723E-002  alpha = 
  0.387179450501093     
 delta_qm =   0.118222E-02 delta_en =   0.943417E+00 tol =   0.100000E-03
 Iteration #          8
  pAp =   4.254353853545861E-003  rzold =   1.852897929019314E-003  alpha = 
  0.435529810825441     
 delta_qm =   0.790901E-03 delta_en =   0.422229E+00 tol =   0.100000E-03
 Iteration #          9
  pAp =   1.087947679685802E-003  rzold =   3.695746575223697E-004  alpha = 
  0.339698925254478     
 delta_qm =   0.740280E-03 delta_en =   0.369910E+00 tol =   0.100000E-03
 Iteration #         10
  pAp =   2.642034941793670E-004  rzold =   1.329422802170633E-004  alpha = 
  0.503181385355975     
 delta_qm =   0.602470E-03 delta_en =   0.245005E+00 tol =   0.100000E-03
 Iteration #         11
  pAp =   8.519168424255315E-005  rzold =   7.983251425736291E-005  alpha = 
  0.937092803918139     
 delta_qm =   0.285233E-03 delta_en =   0.549166E-01 tol =   0.100000E-03
 Iteration #         12
  pAp =   1.112697460537857E-004  rzold =   5.819296292003512E-005  alpha = 
  0.522989985902419     
 delta_qm =   0.104180E-03 delta_en =   0.732605E-02 tol =   0.100000E-03
 Iteration #         13
  pAp =   1.974533731034457E-003  rzold =   7.251507456047848E-005  alpha = 
  3.672516372890114E-002
 delta_qm =   0.113897E-03 delta_en =   0.875645E-02 tol =   0.100000E-03
 Iteration #         14
  pAp =   4.257438703304296E-005  rzold =   1.487498349333449E-005  alpha = 
  0.349388083539281     
 delta_qm =   0.846415E-04 delta_en =   0.483582E-02 tol =   0.100000E-03
 Iteration #         15
  pAp =   4.878717105496367E-006  rzold =   2.500402235821358E-006  alpha = 
  0.512512240770100     
 delta_qm =   0.699971E-04 delta_en =   0.330723E-02 tol =   0.100000E-03
 Iteration #         16
  pAp =   2.589600740887749E-006  rzold =   1.623877209154762E-006  alpha = 
  0.627076283812800     
 delta_qm =   0.782237E-04 delta_en =   0.413029E-02 tol =   0.100000E-03
 Iteration #         17
  pAp =   1.918980777592285E-006  rzold =   1.807222608859010E-006  alpha = 
  0.941761704943446     
 delta_qm =   0.989969E-04 delta_en =   0.661526E-02 tol =   0.100000E-03
 Iteration #         18
  pAp =   3.887813071270873E-006  rzold =   5.279156269851143E-006  alpha = 
   1.35787296690308     
 delta_qm =   0.175348E-03 delta_en =   0.207541E-01 tol =   0.100000E-03
 Iteration #         19
  pAp =   8.580641483111021E-006  rzold =   1.188597770305815E-005  alpha = 
   1.38520852158349     
 delta_qm =   0.226708E-03 delta_en =   0.346926E-01 tol =   0.100000E-03
 Iteration #         20
  pAp =   1.873154695079129E-005  rzold =   1.575133711013981E-005  alpha = 
  0.840898893803025     
 delta_qm =   0.244124E-03 delta_en =   0.402276E-01 tol =   0.100000E-03
 Iteration #         21
  pAp =   7.897995291000718E-006  rzold =   1.014153591171512E-005  alpha = 
   1.28406456803928     
 delta_qm =   0.140235E-03 delta_en =   0.132745E-01 tol =   0.100000E-03
 Iteration #         22
  pAp =   1.336454581882674E-005  rzold =   9.280492385824629E-006  alpha = 
  0.694411356108423     
 delta_qm =   0.107558E-03 delta_en =   0.780896E-02 tol =   0.100000E-03
 Iteration #         23
  pAp =   3.564086233908360E-005  rzold =   4.580671387628998E-006  alpha = 
  0.128523023490536     
 delta_qm =   0.108545E-03 delta_en =   0.795289E-02 tol =   0.100000E-03
 Iteration #         24
  pAp =   1.057372480327437E-004  rzold =   1.198455335484314E-005  alpha = 
  0.113342777288207     
 delta_qm =   0.827121E-04 delta_en =   0.461787E-02 tol =   0.100000E-03
 Iteration #         25
  pAp =   5.343549226944669E-006  rzold =   1.549552392926987E-006  alpha = 
  0.289985612018585     
 delta_qm =   0.628230E-04 delta_en =   0.266404E-02 tol =   0.100000E-03
 Iteration #         26
  pAp =   3.442687839696192E-006  rzold =   1.340190952312912E-006  alpha = 
  0.389286224809502     
 delta_qm =   0.354005E-04 delta_en =   0.845905E-03 tol =   0.100000E-03
 Iteration #         27
  pAp =   8.897050044665976E-007  rzold =   4.736514523748886E-007  alpha = 
  0.532369099866821     
 delta_qm =   0.177630E-04 delta_en =   0.212978E-03 tol =   0.100000E-03
 Iteration #         28
  pAp =   2.603215399103620E-007  rzold =   1.529783060588682E-007  alpha = 
  0.587651356516806     
 delta_qm =   0.828309E-05 delta_en =   0.463115E-04 tol =   0.100000E-03
 Charges are converged, EXIT

%%%% ELECTRONS %%%%%%%%%%%%%%%%%%%%%%%%%%%%%%%%%%%%%%%%%%%%%%%%%%%%%%%%%%%%%%%%%
 number of electrons        =         89
 total electronic charge    =     89.0000000
 number of spin components  =  1

%%%% BOUNDARY %%%%%%%%%%%%%%%%%%%%%%%%%%%%%%%%%%%%%%%%%%%%%%%%%%%%%%%%%%%%%%%%%%
 boundary mode              = electronic           
 boundary is built as a function of a smooth density
 function type              =  2 
 using the modified SCCS function with parameters 
 rhomax                     =      0.0050000 
 rhomin                     =      0.0001000 

%%%% DIELECTRIC %%%%%%%%%%%%%%%%%%%%%%%%%%%%%%%%%%%%%%%%%%%%%%%%%%%%%%%%%%%%%%%%%
 dielectric build on homogeneous background
 environment bulk permitt.  =    100.0000000 
 dielectric flags
 need gradient              =  F 
 need factor depend. sqrt   =  T 
 need gradient of logarithm =  T 

%%%% COMPUTE ELECTROSTATIC POTENTIAL %%%%%%%%%%%%%%%%%%%%%%%%%%%%%%%%%%%%%%%%%%%
 Warning: bad guess with residual norm =   0.243825E+02, reset to no guess
 Iteration #          1
  pAp =    1271.94729819868       rzold =    1269.74195478986       alpha = 
  0.998266167621928     
 delta_qm =   0.787117E-01 delta_en =   0.418198E+04 tol =   0.100000E-03
 Iteration #          2
  pAp =    1319.50275101844       rzold =    43.4868112506464       alpha = 
  3.295696899235849E-002
 delta_qm =   0.691963E-01 delta_en =   0.323199E+04 tol =   0.100000E-03
 Iteration #          3
  pAp =    47.4350185682116       rzold =    5.39228919665019       alpha = 
  0.113677391922933     
 delta_qm =   0.696803E-01 delta_en =   0.327735E+04 tol =   0.100000E-03
 Iteration #          4
  pAp =   -2.71168567795679       rzold =   0.960308699182024       alpha = 
 -0.354137172677624     
 delta_qm =   0.368741E-01 delta_en =   0.917797E+03 tol =   0.100000E-03
 Iteration #          5
  pAp =    2.27710805821313       rzold =  -0.895845961547780       alpha = 
 -0.393413899843980     
 delta_qm =   0.970959E-02 delta_en =   0.636364E+02 tol =   0.100000E-03
 Iteration #          6
  pAp =   0.690545749342932       rzold =   0.216419878801827       alpha = 
  0.313404114076084     
 delta_qm =   0.297104E-02 delta_en =   0.595829E+01 tol =   0.100000E-03
 Iteration #          7
  pAp =   3.770805875319111E-002  rzold =   1.444061106543582E-002  alpha = 
  0.382958220150056     
 delta_qm =   0.107777E-02 delta_en =   0.784074E+00 tol =   0.100000E-03
 Iteration #          8
  pAp =   4.205524163465371E-003  rzold =   1.824804463502291E-003  alpha = 
  0.433906545908095     
 delta_qm =   0.733072E-03 delta_en =   0.362741E+00 tol =   0.100000E-03
 Iteration #          9
  pAp =   1.162047222642114E-003  rzold =   3.883503560112731E-004  alpha = 
  0.334194986610176     
 delta_qm =   0.687005E-03 delta_en =   0.318583E+00 tol =   0.100000E-03
 Iteration #         10
  pAp =   2.696596981967405E-004  rzold =   1.374551691228186E-004  alpha = 
  0.509735678123221     
 delta_qm =   0.563019E-03 delta_en =   0.213969E+00 tol =   0.100000E-03
 Iteration #         11
  pAp =   8.175572356144068E-005  rzold =   7.989787316956733E-005  alpha = 
  0.977275592326241     
 delta_qm =   0.265985E-03 delta_en =   0.477548E-01 tol =   0.100000E-03
 Iteration #         12
  pAp =   1.044115048144028E-004  rzold =   5.897516722162122E-005  alpha = 
  0.564833993403819     
 delta_qm =   0.134712E-03 delta_en =   0.122494E-01 tol =   0.100000E-03
 Iteration #         13
  pAp =   5.908114205466526E-005  rzold =   1.787842985938860E-005  alpha = 
  0.302608061348009     
 delta_qm =   0.881257E-04 delta_en =   0.524215E-02 tol =   0.100000E-03
 Iteration #         14
  pAp =   7.222496237450530E-004  rzold =   2.940074047839809E-005  alpha = 
  4.070717313211957E-002
 delta_qm =   0.115306E-03 delta_en =   0.897447E-02 tol =   0.100000E-03
 Iteration #         15
  pAp =   1.887214345637059E-005  rzold =   6.418386096815216E-006  alpha = 
  0.340098416041268     
 delta_qm =   0.103131E-03 delta_en =   0.717927E-02 tol =   0.100000E-03
 Iteration #         16
  pAp =   3.200737096218501E-006  rzold =   3.558240091915272E-006  alpha = 
   1.11169395828203     
 delta_qm =   0.122828E-03 delta_en =   0.101835E-01 tol =   0.100000E-03
 Iteration #         17
  pAp =   1.926037691011435E-006  rzold =   5.582757925701280E-006  alpha = 
   2.89857148266375     
 delta_qm =   0.217625E-03 delta_en =   0.319684E-01 tol =   0.100000E-03
 Iteration #         18
  pAp =   1.844913854770917E-005  rzold =   2.627814775742945E-005  alpha = 
   1.42435635623173     
 delta_qm =   0.292345E-03 delta_en =   0.576892E-01 tol =   0.100000E-03
 Iteration #         19
  pAp =   5.378477837136369E-005  rzold =   3.737477297686386E-005  alpha = 
  0.694894989039559     
 delta_qm =   0.225807E-03 delta_en =   0.344174E-01 tol =   0.100000E-03
 Iteration #         20
  pAp =   3.900495308480747E-005  rzold =   1.885848342170335E-005  alpha = 
  0.483489452754881     
 delta_qm =   0.218570E-03 delta_en =   0.322468E-01 tol =   0.100000E-03
 Iteration #         21
  pAp =   1.152156584161054E-005  rzold =   9.340539035196336E-006  alpha = 
  0.810700486687552     
 delta_qm =   0.899253E-04 delta_en =   0.545843E-02 tol =   0.100000E-03
 Iteration #         22
  pAp =   9.564112668235713E-006  rzold =   5.538406029554032E-006  alpha = 
  0.579082056189923     
 delta_qm =   0.700859E-04 delta_en =   0.331563E-02 tol =   0.100000E-03
 Iteration #         23
  pAp =   4.433204586634858E-006  rzold =   2.080541020463457E-006  alpha = 
  0.469308596029119     
 delta_qm =   0.521093E-04 delta_en =   0.183288E-02 tol =   0.100000E-03
 Iteration #         24
  pAp =   1.893181385638421E-006  rzold =   5.593690054757919E-007  alpha = 
  0.295465088405758     
 delta_qm =   0.450222E-04 delta_en =   0.136822E-02 tol =   0.100000E-03
 Iteration #         25
  pAp =   4.312424352969577E-005  rzold =   2.726919739628821E-006  alpha = 
  6.323403070829610E-002
 delta_qm =   0.312096E-04 delta_en =   0.657478E-03 tol =   0.100000E-03
 Iteration #         26
  pAp =   1.630687206637662E-006  rzold =   4.271763141805117E-007  alpha = 
  0.261960915889757     
 delta_qm =   0.227391E-04 delta_en =   0.349020E-03 tol =   0.100000E-03
 Iteration #         27
  pAp =   8.112019198128500E-007  rzold =   2.899283857389938E-007  alpha = 
  0.357405941304826     
 delta_qm =   0.111035E-04 delta_en =   0.832185E-04 tol =   0.100000E-03
 Charges are converged, EXIT

%%%% ELECTRONS %%%%%%%%%%%%%%%%%%%%%%%%%%%%%%%%%%%%%%%%%%%%%%%%%%%%%%%%%%%%%%%%%
 number of electrons        =         89
 total electronic charge    =     89.0000000
 number of spin components  =  1

%%%% BOUNDARY %%%%%%%%%%%%%%%%%%%%%%%%%%%%%%%%%%%%%%%%%%%%%%%%%%%%%%%%%%%%%%%%%%
 boundary mode              = electronic           
 boundary is built as a function of a smooth density
 function type              =  2 
 using the modified SCCS function with parameters 
 rhomax                     =      0.0050000 
 rhomin                     =      0.0001000 

%%%% DIELECTRIC %%%%%%%%%%%%%%%%%%%%%%%%%%%%%%%%%%%%%%%%%%%%%%%%%%%%%%%%%%%%%%%%%
 dielectric build on homogeneous background
 environment bulk permitt.  =    100.0000000 
 dielectric flags
 need gradient              =  F 
 need factor depend. sqrt   =  T 
 need gradient of logarithm =  T 

%%%% COMPUTE ELECTROSTATIC POTENTIAL %%%%%%%%%%%%%%%%%%%%%%%%%%%%%%%%%%%%%%%%%%%
 Warning: bad guess with residual norm =   0.375289E+00, reset to no guess
 Iteration #          1
  pAp =    1272.23790484544       rzold =    1269.91823292200       alpha = 
  0.998176699566487     
 delta_qm =   0.809135E-01 delta_en =   0.441922E+04 tol =   0.100000E-03
 Iteration #          2
  pAp =    1485.96216023137       rzold =    47.9695808809465       alpha = 
  3.228183204441595E-002
 delta_qm =   0.715255E-01 delta_en =   0.345323E+04 tol =   0.100000E-03
 Iteration #          3
  pAp =    44.5502736742058       rzold =    5.18958667962001       alpha = 
  0.116488323227176     
 delta_qm =   0.730751E-01 delta_en =   0.360448E+04 tol =   0.100000E-03
 Iteration #          4
  pAp =   -2.81708797602858       rzold =   0.964903569794338       alpha = 
 -0.342518081794031     
 delta_qm =   0.387820E-01 delta_en =   0.101523E+04 tol =   0.100000E-03
 Iteration #          5
  pAp =    2.12638688652753       rzold =  -0.865049185232696       alpha = 
 -0.406816459748468     
 delta_qm =   0.990128E-02 delta_en =   0.661739E+02 tol =   0.100000E-03
 Iteration #          6
  pAp =   0.663578763587836       rzold =   0.209373926100474       alpha = 
  0.315522342771237     
 delta_qm =   0.312324E-02 delta_en =   0.658437E+01 tol =   0.100000E-03
 Iteration #          7
  pAp =   3.704011230946860E-002  rzold =   1.427435309990043E-002  alpha = 
  0.385375535058825     
 delta_qm =   0.110062E-02 delta_en =   0.817668E+00 tol =   0.100000E-03
 Iteration #          8
  pAp =   4.109583771333327E-003  rzold =   1.799343192609004E-003  alpha = 
  0.437840738315262     
 delta_qm =   0.746616E-03 delta_en =   0.376269E+00 tol =   0.100000E-03
 Iteration #          9
  pAp =   1.059639709768381E-003  rzold =   3.629283715740466E-004  alpha = 
  0.342501671302387     
 delta_qm =   0.701073E-03 delta_en =   0.331765E+00 tol =   0.100000E-03
 Iteration #         10
  pAp =   2.672800327289757E-004  rzold =   1.344719076357395E-004  alpha = 
  0.503112433288630     
 delta_qm =   0.576732E-03 delta_en =   0.224518E+00 tol =   0.100000E-03
 Iteration #         11
  pAp =   8.400454431062314E-005  rzold =   8.176047475185373E-005  alpha = 
  0.973286331386174     
 delta_qm =   0.283160E-03 delta_en =   0.541211E-01 tol =   0.100000E-03
 Iteration #         12
  pAp =   1.138238798883601E-004  rzold =   6.244633317672799E-005  alpha = 
  0.548622426488854     
 delta_qm =   0.227758E-03 delta_en =   0.350148E-01 tol =   0.100000E-03
 Iteration #         13
  pAp =   2.609439557648701E-003  rzold =   9.612896588420068E-005  alpha = 
  3.683893179377569E-002
 delta_qm =   0.162505E-03 delta_en =   0.178254E-01 tol =   0.100000E-03
 Iteration #         14
  pAp =   4.753608206680818E-005  rzold =   1.932693712335151E-005  alpha = 
  0.406574044032258     
 delta_qm =   0.163759E-03 delta_en =   0.181015E-01 tol =   0.100000E-03
 Iteration #         15
  pAp =   1.255643599358530E-005  rzold =   7.580434143594608E-006  alpha = 
  0.603709057846288     
 delta_qm =   0.165000E-03 delta_en =   0.183770E-01 tol =   0.100000E-03
 Iteration #         16
  pAp =   1.299142742118907E-005  rzold =   1.244669093596008E-005  alpha = 
  0.958069543278938     
 delta_qm =   0.217616E-03 delta_en =   0.319659E-01 tol =   0.100000E-03
 Iteration #         17
  pAp =   8.754075383028807E-006  rzold =   2.095974281430725E-005  alpha = 
   2.39428402169590     
 delta_qm =   0.346655E-03 delta_en =   0.811147E-01 tol =   0.100000E-03
 Iteration #         18
  pAp =   9.822296397429985E-005  rzold =   8.510322626502992E-005  alpha = 
  0.866429018445190     
 delta_qm =   0.414401E-03 delta_en =   0.115917E+00 tol =   0.100000E-03
 Iteration #         19
  pAp =   1.581788245713105E-004  rzold =   8.219179616349764E-005  alpha = 
  0.519613142822690     
 delta_qm =   0.255968E-03 delta_en =   0.442259E-01 tol =   0.100000E-03
 Iteration #         20
  pAp =   5.162909417483785E-005  rzold =   2.671543387324395E-005  alpha = 
  0.517449207665241     
 delta_qm =   0.212378E-03 delta_en =   0.304454E-01 tol =   0.100000E-03
 Iteration #         21
  pAp =   8.297041871608794E-006  rzold =   7.382568137471994E-006  alpha = 
  0.889783160277160     
 delta_qm =   0.934746E-04 delta_en =   0.589781E-02 tol =   0.100000E-03
 Iteration #         22
  pAp =   7.602628984948806E-006  rzold =   4.348550471543030E-006  alpha = 
  0.571979834890274     
 delta_qm =   0.576747E-04 delta_en =   0.224530E-02 tol =   0.100000E-03
 Iteration #         23
  pAp =   1.334727394689092E-005  rzold =   1.840952214892325E-006  alpha = 
  0.137927206875165     
 delta_qm =   0.556357E-04 delta_en =   0.208935E-02 tol =   0.100000E-03
 Iteration #         24
  pAp =   4.990857054886825E-005  rzold =   5.137783448698734E-006  alpha = 
  0.102943911079722     
 delta_qm =   0.429172E-04 delta_en =   0.124327E-02 tol =   0.100000E-03
 Iteration #         25
  pAp =   6.941052835020009E-007  rzold =   3.630703161004746E-007  alpha = 
  0.523076721543826     
 delta_qm =   0.287921E-04 delta_en =   0.559566E-03 tol =   0.100000E-03
 Iteration #         26
  pAp =   1.509701347068803E-006  rzold =   3.695877266351233E-007  alpha = 
  0.244808502921922     
 delta_qm =   0.209476E-04 delta_en =   0.296192E-03 tol =   0.100000E-03
 Iteration #         27
  pAp =   3.876546454438280E-007  rzold =   1.809847595351100E-007  alpha = 
  0.466871122691951     
 delta_qm =   0.100054E-04 delta_en =   0.675732E-04 tol =   0.100000E-03
 Charges are converged, EXIT

%%%% ELECTRONS %%%%%%%%%%%%%%%%%%%%%%%%%%%%%%%%%%%%%%%%%%%%%%%%%%%%%%%%%%%%%%%%%
 number of electrons        =         89
 total electronic charge    =     89.0000000
 number of spin components  =  1

%%%% BOUNDARY %%%%%%%%%%%%%%%%%%%%%%%%%%%%%%%%%%%%%%%%%%%%%%%%%%%%%%%%%%%%%%%%%%
 boundary mode              = electronic           
 boundary is built as a function of a smooth density
 function type              =  2 
 using the modified SCCS function with parameters 
 rhomax                     =      0.0050000 
 rhomin                     =      0.0001000 

%%%% DIELECTRIC %%%%%%%%%%%%%%%%%%%%%%%%%%%%%%%%%%%%%%%%%%%%%%%%%%%%%%%%%%%%%%%%%
 dielectric build on homogeneous background
 environment bulk permitt.  =    100.0000000 
 dielectric flags
 need gradient              =  F 
 need factor depend. sqrt   =  T 
 need gradient of logarithm =  T 
