
     Program PWSCF v.6.1 (svn rev. 13369) starts on  8Nov2017 at 15:33:36 

     This program is part of the open-source Quantum ESPRESSO suite
     for quantum simulation of materials; please cite
         "P. Giannozzi et al., J. Phys.:Condens. Matter 21 395502 (2009);
          URL http://www.quantum-espresso.org", 
     in publications or presentations arising from this work. More details at
     http://www.quantum-espresso.org/quote

     Parallel version (MPI), running on     1 processors
     Reading input from neutral.in

     Current dimensions of program PWSCF are:
     Max number of different atomic species (ntypx) = 10
     Max number of k-points (npk) =  40000
     Max angular momentum in pseudopotentials (lmaxx) =  3
               file C.pbe-rrkjus.UPF: wavefunction(s)  2S 2P renormalized
               file O.pbe-rrkjus.UPF: wavefunction(s)  2S renormalized

     gamma-point specific algorithms are used

     Subspace diagonalization in iterative solution of the eigenvalue problem:
     a serial algorithm will be used

 
     G-vector sticks info
     --------------------
     sticks:   dense  smooth     PW     G-vecs:    dense   smooth      PW
     Sum        2357    1099    269               366833   116965   14571
 


     bravais-lattice index     =            8
     lattice parameter (alat)  =      10.6881  a.u.
     unit-cell volume          =    4181.1215 (a.u.)^3
     number of atoms/cell      =           10
     number of atomic types    =            3
     number of electrons       =        90.00
     number of Kohn-Sham states=           80
     kinetic-energy cutoff     =      35.0000  Ry
     charge density cutoff     =     300.0000  Ry
     convergence threshold     =      5.0E-02
     mixing beta               =       0.7000
     number of iterations used =            8  plain     mixing
     Exchange-correlation      = PBE ( 1  4  3  4 0 0)
 

     Environ Module
     ==============

     Plese cite
         O. Andreussi, I. Dabo and N. Marzari, J. Chem. Phys. 136, 064102 (2012)         
     in publications or presentations arising from this work.

     compensation onset threshold      =               0.1000E+03 

     Electrostatic Setup
     -------------------
     electrostatic problem to solve    = poisson                  
     numerical solver adopted          = direct                   
     type of auxiliary density adopted = none                     
     type of core tool for poisson     = fft                      
     type of core tool for s(r) deriv  = analytic                 



     celldm(1)=  10.688100  celldm(2)=   0.866025  celldm(3)=   3.954220
     celldm(4)=   0.000000  celldm(5)=   0.000000  celldm(6)=   0.000000

     crystal axes: (cart. coord. in units of alat)
               a(1) = (   1.000000   0.000000   0.000000 )  
               a(2) = (   0.000000   0.866025   0.000000 )  
               a(3) = (   0.000000   0.000000   3.954220 )  

     reciprocal axes: (cart. coord. in units 2 pi/alat)
               b(1) = (  1.000000  0.000000  0.000000 )  
               b(2) = (  0.000000  1.154701  0.000000 )  
               b(3) = (  0.000000  0.000000  0.252894 )  


     PseudoPot. # 1 for C  read from file:
     /home/andreo/PWSCF/espresso-6.1-Environ-1.0/Environ/tests/../..//pseudo/C.pbe-rrkjus.UPF
     MD5 check sum: 00fb224312de0c5b6853bd333518df6f
     Pseudo is Ultrasoft, Zval =  4.0
     Generated by new atomic code, or converted to UPF format
     Using radial grid of  627 points,  4 beta functions with: 
                l(1) =   0
                l(2) =   0
                l(3) =   1
                l(4) =   1
     Q(r) pseudized with 0 coefficients 


     PseudoPot. # 2 for O  read from file:
     /home/andreo/PWSCF/espresso-6.1-Environ-1.0/Environ/tests/../..//pseudo/O.pbe-rrkjus.UPF
     MD5 check sum: 390ba29e75625707450f3bd3f0eb6be9
     Pseudo is Ultrasoft, Zval =  6.0
     Generated by new atomic code, or converted to UPF format
     Using radial grid of 1269 points,  4 beta functions with: 
                l(1) =   0
                l(2) =   0
                l(3) =   1
                l(4) =   1
     Q(r) pseudized with 0 coefficients 


     PseudoPot. # 3 for Pt read from file:
     /home/andreo/PWSCF/espresso-6.1-Environ-1.0/Environ/tests/../..//pseudo/Pt.pbe-n-rrkjus_psl.0.1.UPF
     MD5 check sum: df5be8f5ed4f66d4aed38ca70ec8d507
     Pseudo is Ultrasoft + core correction, Zval = 10.0
     Generated using "atomic" code by A. Dal Corso  v.5.0.2 svn rev. 9415
     Using radial grid of 1277 points,  6 beta functions with: 
                l(1) =   0
                l(2) =   0
                l(3) =   1
                l(4) =   1
                l(5) =   2
                l(6) =   2
     Q(r) pseudized with 0 coefficients 


     atomic species   valence    mass     pseudopotential
        C              4.00     1.00000     C ( 1.00)
        O              6.00     1.00000     O ( 1.00)
        Pt            10.00     1.00000     Pt( 1.00)

     No symmetry found



   Cartesian axes

     site n.     atom                  positions (alat units)
         1           C   tau(   1) = (   0.4991611   0.4347567   1.2070461  )
         2           O   tau(   2) = (   0.4991542   0.4322212   1.4109013  )
         3           Pt  tau(   3) = (   0.7542339   0.0091745   0.8413229  )
         4           Pt  tau(   4) = (   0.2441023   0.0091745   0.8413226  )
         5           Pt  tau(   5) = (   0.0000034   0.4416918   0.8391348  )
         6           Pt  tau(   6) = (   0.4991682   0.4417635   0.8776299  )
         7           Pt  tau(   7) = (   0.0000038   0.7300598   0.4308181  )
         8           Pt  tau(   8) = (   0.4991683   0.7202168   0.4447460  )
         9           Pt  tau(   9) = (   0.2524172   0.2949237   0.4386572  )
        10           Pt  tau(  10) = (   0.7459196   0.2949237   0.4386575  )

     number of k points=     1  Marzari-Vanderbilt smearing, width (Ry)=  0.0300
                       cart. coord. in units 2pi/alat
        k(    1) = (   0.0000000   0.0000000   0.0000000), wk =   2.0000000

     Dense  grid:   183417 G-vectors     FFT dimensions: (  60,  54, 240)

     Smooth grid:    58483 G-vectors     FFT dimensions: (  45,  36, 160)

     Estimated max dynamical RAM per process >     231.32MB

     Initial potential from superposition of free atoms
     Check: negative starting charge=   -0.003086

     starting charge   89.99859, renormalised to   90.00000

     negative rho (up, down):  3.086E-03 0.000E+00
     Starting wfc are   80 randomized atomic wfcs

     total cpu time spent up to now is        6.1 secs

     per-process dynamical memory:   193.5 Mb

     Self-consistent Calculation

     iteration #  1     ecut=    35.00 Ry     beta=0.70
     Davidson diagonalization with overlap
     ethr =  1.00E-02,  avg # of iterations =  8.0

     negative rho (up, down):  2.238E-03 0.000E+00

     add environment contribution to local potential

     total cpu time spent up to now is        9.9 secs

     total energy              =    -623.07788607 Ry
     Harris-Foulkes estimate   =    -624.45760611 Ry
     estimated scf accuracy    <       1.80056586 Ry
     electrostatic embedding   =       0.00000000 Ry
     correction to one-el term =       0.00000000 Ry

     iteration #  2     ecut=    35.00 Ry     beta=0.70
     Davidson diagonalization with overlap
     ethr =  2.00E-03,  avg # of iterations =  5.0

     negative rho (up, down):  1.658E-02 0.000E+00

     add environment contribution to local potential

     total cpu time spent up to now is       13.6 secs

     total energy              =    -620.30723430 Ry
     Harris-Foulkes estimate   =    -665.93488362 Ry
     estimated scf accuracy    <      26.82658360 Ry
     electrostatic embedding   =      -0.00152781 Ry
     correction to one-el term =      39.44283336 Ry

     iteration #  3     ecut=    35.00 Ry     beta=0.70
     Davidson diagonalization with overlap
     ethr =  2.00E-03,  avg # of iterations =  8.0

     negative rho (up, down):  1.031E-02 0.000E+00

     add environment contribution to local potential

     total cpu time spent up to now is       17.5 secs

     total energy              =    -622.98041631 Ry
     Harris-Foulkes estimate   =    -654.11049369 Ry
     estimated scf accuracy    <      35.13402811 Ry
     electrostatic embedding   =       0.00165466 Ry
     correction to one-el term =      28.90658349 Ry

     iteration #  4     ecut=    35.00 Ry     beta=0.70
     Davidson diagonalization with overlap
     ethr =  2.00E-03,  avg # of iterations =  4.0

     negative rho (up, down):  5.793E-03 0.000E+00

     add environment contribution to local potential

     total cpu time spent up to now is       20.7 secs

     total energy              =    -623.53424480 Ry
     Harris-Foulkes estimate   =    -654.78170881 Ry
     estimated scf accuracy    <      10.24132911 Ry
     electrostatic embedding   =       0.00018778 Ry
     correction to one-el term =      30.04821692 Ry

     iteration #  5     ecut=    35.00 Ry     beta=0.70
     Davidson diagonalization with overlap
     ethr =  2.00E-03,  avg # of iterations =  2.0

     negative rho (up, down):  4.379E-03 0.000E+00

     add environment contribution to local potential

     total cpu time spent up to now is       23.6 secs

     total energy              =    -624.03230694 Ry
     Harris-Foulkes estimate   =    -656.48646235 Ry
     estimated scf accuracy    <       1.48354144 Ry
     electrostatic embedding   =      -0.00011820 Ry
     correction to one-el term =      32.20211215 Ry

     iteration #  6     ecut=    35.00 Ry     beta=0.70
     Davidson diagonalization with overlap
     ethr =  1.65E-03,  avg # of iterations =  1.0

     negative rho (up, down):  2.569E-03 0.000E+00

     add environment contribution to local potential

     total cpu time spent up to now is       26.6 secs

     total energy              =    -624.11330734 Ry
     Harris-Foulkes estimate   =    -655.39294995 Ry
     estimated scf accuracy    <       0.19164846 Ry
     electrostatic embedding   =      -0.00003058 Ry
     correction to one-el term =      31.24096228 Ry

     iteration #  7     ecut=    35.00 Ry     beta=0.70
     Davidson diagonalization with overlap
     ethr =  2.13E-04,  avg # of iterations =  6.0

     negative rho (up, down):  2.467E-03 0.000E+00

     add environment contribution to local potential

     total cpu time spent up to now is       29.7 secs

     total energy              =    -624.12201326 Ry
     Harris-Foulkes estimate   =    -655.62196222 Ry
     estimated scf accuracy    <       0.11988315 Ry
     electrostatic embedding   =       0.00002539 Ry
     correction to one-el term =      31.47517816 Ry

     iteration #  8     ecut=    35.00 Ry     beta=0.70
     Davidson diagonalization with overlap
     ethr =  1.33E-04,  avg # of iterations =  1.0

     negative rho (up, down):  2.118E-03 0.000E+00

     add environment contribution to local potential

     total cpu time spent up to now is       32.7 secs

     total energy              =    -624.12964530 Ry
     Harris-Foulkes estimate   =    -655.43946335 Ry
     estimated scf accuracy    <       0.05920537 Ry
     electrostatic embedding   =       0.00003983 Ry
     correction to one-el term =      31.29888112 Ry

     iteration #  9     ecut=    35.00 Ry     beta=0.70
     Davidson diagonalization with overlap
     ethr =  6.58E-05,  avg # of iterations =  3.0

     negative rho (up, down):  3.151E-03 0.000E+00

     total cpu time spent up to now is       35.5 secs

     End of self-consistent calculation

          k = 0.0000 0.0000 0.0000 (  7286 PWs)   bands (ev):

   -29.7619 -15.7416 -13.9205 -13.1627 -12.5110 -12.4876 -12.3452 -11.6340
   -11.4720 -10.6592 -10.4873 -10.4051 -10.1392 -10.1056 -10.0737  -9.8352
    -9.2547  -9.2117  -9.1471  -8.9659  -8.8715  -8.8142  -8.7521  -8.7283
    -8.7141  -8.5534  -8.5258  -8.4283  -8.3512  -8.0564  -7.9681  -7.2656
    -7.1044  -7.0003  -6.6873  -6.5544  -6.5267  -6.3464  -6.2427  -6.0334
    -5.9073  -5.8672  -5.6472  -5.6093  -5.5685  -5.5620  -5.3776  -4.3506
    -3.9352  -3.8778  -3.4569  -2.8423  -2.7083  -1.8148  -1.4175  -1.2970
    -0.9794  -0.2275   0.1220   0.3518   0.4657   0.8752   1.6744   1.8877
     2.0967   2.2366   2.6039   2.7598   3.0447   3.0837   3.6230   3.6437
     4.1177   4.3957   4.5502   4.7781   4.8842   5.0403   5.1088   5.2727

     the Fermi energy is    -5.4716 ev

!    total energy              =    -624.10664556 Ry
     Harris-Foulkes estimate   =    -654.93683858 Ry
     estimated scf accuracy    <       0.03367049 Ry

     The total energy is the sum of the following terms:

     one-electron contribution =   -3998.21347225 Ry
     hartree contribution      =    2033.37426599 Ry
     xc contribution           =    -263.26773504 Ry
     ewald contribution        =    1573.20467954 Ry
     smearing contrib. (-TS)   =      -0.00363972 Ry
     electrostatic embedding   =       0.00003616 Ry
     correction to one-el term =      30.79921976 Ry

     convergence has been achieved in   9 iterations

     negative rho (up, down):  3.151E-03 0.000E+00

     Forces acting on atoms (cartesian axes, Ry/au):

     atom    1 type  1   force =     0.00015509   -0.00476919    0.02449362
     atom    2 type  2   force =    -0.00009855    0.00027007    0.08521006
     atom    3 type  3   force =     0.00177490    0.01972534    0.03541158
     atom    4 type  3   force =    -0.00093809    0.02017780    0.03556681
     atom    5 type  3   force =    -0.00165559    0.00969308   -0.02375506
     atom    6 type  3   force =     0.00073475   -0.00088187    0.05622711
     atom    7 type  3   force =    -0.00130566   -0.01133152   -0.07193898
     atom    8 type  3   force =     0.00011733   -0.01257140   -0.04266684
     atom    9 type  3   force =     0.00656744   -0.01038292   -0.04967250
     atom   10 type  3   force =    -0.00535161   -0.00992939   -0.04887580

     Total force =     0.165665     Total SCF correction =     0.510916
     SCF correction compared to forces is large: reduce conv_thr to get better values

     Writing output data file pwscf.save
 
     init_run     :      5.64s CPU      5.75s WALL (       1 calls)
     electrons    :     27.78s CPU     30.11s WALL (       1 calls)
     forces       :      3.91s CPU      4.02s WALL (       1 calls)

     Called by init_run:
     wfcinit      :      0.41s CPU      0.41s WALL (       1 calls)
     potinit      :      2.08s CPU      2.10s WALL (       1 calls)

     Called by electrons:
     c_bands      :     11.34s CPU     11.41s WALL (       9 calls)
     sum_band     :      7.53s CPU      8.31s WALL (       9 calls)
     v_of_rho     :      3.41s CPU      3.47s WALL (      10 calls)
     newd         :      4.43s CPU      5.25s WALL (      10 calls)
     mix_rho      :      0.37s CPU      0.37s WALL (       9 calls)

     Called by c_bands:
     init_us_2    :      0.08s CPU      0.09s WALL (      19 calls)
     regterg      :     10.70s CPU     10.77s WALL (       9 calls)

     Called by sum_band:
     sum_band:bec :      0.00s CPU      0.00s WALL (       9 calls)
     addusdens    :      5.20s CPU      5.97s WALL (       9 calls)

     Called by *egterg:
     h_psi        :      8.50s CPU      8.51s WALL (      48 calls)
     s_psi        :      0.42s CPU      0.43s WALL (      48 calls)
     g_psi        :      0.07s CPU      0.08s WALL (      38 calls)
     rdiaghg      :      0.42s CPU      0.40s WALL (      47 calls)

     Called by h_psi:
     h_psi:pot    :      8.46s CPU      8.46s WALL (      48 calls)
     h_psi:calbec :      0.44s CPU      0.44s WALL (      48 calls)
     vloc_psi     :      7.61s CPU      7.60s WALL (      48 calls)
     add_vuspsi   :      0.41s CPU      0.42s WALL (      48 calls)

     General routines
     calbec       :      0.69s CPU      0.69s WALL (      61 calls)
     fft          :      2.89s CPU      2.91s WALL (     200 calls)
     ffts         :      0.08s CPU      0.08s WALL (      19 calls)
     fftw         :      7.73s CPU      7.73s WALL (    2318 calls)
     interpolate  :      0.41s CPU      0.42s WALL (      19 calls)
     davcio       :      0.00s CPU      0.00s WALL (       1 calls)
 
     Parallel routines
     fft_scatter  :      1.09s CPU      1.08s WALL (    2537 calls)
 
     Environ routines
     calc_eelect  :      0.01s CPU      0.01s WALL (      18 calls)
     calc_velect  :      0.91s CPU      0.90s WALL (      16 calls)
     calc_felect  :      0.11s CPU      0.11s WALL (       1 calls)
 
     PWSCF        :    37.74s CPU        42.42s WALL

 
   This run was terminated on:  15:34:18   8Nov2017            

=------------------------------------------------------------------------------=
   JOB DONE.
=------------------------------------------------------------------------------=

%%%% IONS %%%%%%%%%%%%%%%%%%%%%%%%%%%%%%%%%%%%%%%%%%%%%%%%%%%%%%%%%%%%%%%%%%%%%%
 number of ions             =         10
 ionic center of charge     =      0.3882415     0.3750182     0.7201831
 total ionic charge         =    -90.0000000
 ionic dipole               =      0.0000000     0.0000000     0.0000000
 ionic quadrupole (pc)      =   -730.5101255  -614.6110457  -876.7220256
 ionic quadrupole (gauss)   =   -741.7601255  -625.8610457  -887.9720256
 ion   1 type =  1 coordinates =      5.3350841     4.6467234    12.9010299
 ion   2 type =  2 coordinates =      5.3350096     4.6196233    15.0798543
 ion   3 type =  3 coordinates =      8.0613271     0.0980580     8.9921429
 ion   4 type =  3 coordinates =      2.6089894     0.0980583     8.9921406
 ion   5 type =  3 coordinates =      0.0000366     4.7208463     8.9687569
 ion   6 type =  3 coordinates =      5.3351596     4.7216127     9.3801964
 ion   7 type =  3 coordinates =      0.0000411     7.8029520     4.6046265
 ion   8 type =  3 coordinates =      5.3351612     7.6977491     4.7534894
 ion   9 type =  3 coordinates =      2.6978606     3.1521739     4.6884123
 ion  10 type =  3 coordinates =      7.9724637     3.1521745     4.6884152

%%%% SYSTEM %%%%%%%%%%%%%%%%%%%%%%%%%%%%%%%%%%%%%%%%%%%%%%%%%%%%%%%%%%%%%%%%%%%%
 system is built from all present ionic types
 system defined dimension   =  0 
 system defined axis        =  3 
 system center              =      0.3882415     0.3750182     0.7201831 
 system width               =      1.5145225 

%%%% ELECTRONS %%%%%%%%%%%%%%%%%%%%%%%%%%%%%%%%%%%%%%%%%%%%%%%%%%%%%%%%%%%%%%%%%
 number of electrons        =         90
 total electronic charge    =     90.0000000
 number of spin components  =  1

%%%% ELECTRONS %%%%%%%%%%%%%%%%%%%%%%%%%%%%%%%%%%%%%%%%%%%%%%%%%%%%%%%%%%%%%%%%%
 number of electrons        =         90
 total electronic charge    =     90.0000000
 number of spin components  =  1

%%%% ELECTRONS %%%%%%%%%%%%%%%%%%%%%%%%%%%%%%%%%%%%%%%%%%%%%%%%%%%%%%%%%%%%%%%%%
 number of electrons        =         90
 total electronic charge    =     90.0000000
 number of spin components  =  1

%%%% ELECTRONS %%%%%%%%%%%%%%%%%%%%%%%%%%%%%%%%%%%%%%%%%%%%%%%%%%%%%%%%%%%%%%%%%
 number of electrons        =         90
 total electronic charge    =     90.0000000
 number of spin components  =  1

%%%% ELECTRONS %%%%%%%%%%%%%%%%%%%%%%%%%%%%%%%%%%%%%%%%%%%%%%%%%%%%%%%%%%%%%%%%%
 number of electrons        =         90
 total electronic charge    =     90.0000000
 number of spin components  =  1

%%%% ELECTRONS %%%%%%%%%%%%%%%%%%%%%%%%%%%%%%%%%%%%%%%%%%%%%%%%%%%%%%%%%%%%%%%%%
 number of electrons        =         90
 total electronic charge    =     90.0000000
 number of spin components  =  1

%%%% ELECTRONS %%%%%%%%%%%%%%%%%%%%%%%%%%%%%%%%%%%%%%%%%%%%%%%%%%%%%%%%%%%%%%%%%
 number of electrons        =         90
 total electronic charge    =     90.0000000
 number of spin components  =  1

%%%% ELECTRONS %%%%%%%%%%%%%%%%%%%%%%%%%%%%%%%%%%%%%%%%%%%%%%%%%%%%%%%%%%%%%%%%%
 number of electrons        =         90
 total electronic charge    =     90.0000000
 number of spin components  =  1

%%%% ELECTRONS %%%%%%%%%%%%%%%%%%%%%%%%%%%%%%%%%%%%%%%%%%%%%%%%%%%%%%%%%%%%%%%%%
 number of electrons        =         90
 total electronic charge    =     90.0000000
 number of spin components  =  1
