
     Program PWSCF v.7.0 starts on 22Apr2022 at 20:45:35 

     This program is part of the open-source Quantum ESPRESSO suite
     for quantum simulation of materials; please cite
         "P. Giannozzi et al., J. Phys.:Condens. Matter 21 395502 (2009);
         "P. Giannozzi et al., J. Phys.:Condens. Matter 29 465901 (2017);
         "P. Giannozzi et al., J. Chem. Phys. 152 154105 (2020);
          URL http://www.quantum-espresso.org", 
     in publications or presentations arising from this work. More details at
     http://www.quantum-espresso.org/quote

     Parallel version (MPI), running on     1 processors

     MPI processes distributed on     1 nodes
     22820 MiB available memory on the printing compute node when the environment starts
 
     Reading input from neutral.in

     Current dimensions of program PWSCF are:
     Max number of different atomic species (ntypx) = 10
     Max number of k-points (npk) =  40000
     Max angular momentum in pseudopotentials (lmaxx) =  4
 
     Reading input from environ.in:
     * using full solvent mode
     * setting boundary derivatives method to SCCS default
     
     file C.pbe-rrkjus.UPF: wavefunction(s)  2S 2P renormalized
     file O.pbe-rrkjus.UPF: wavefunction(s)  2S renormalized

     gamma-point specific algorithms are used

     Subspace diagonalization in iterative solution of the eigenvalue problem:
     a serial algorithm will be used

 
     G-vector sticks info
     --------------------
     sticks:   dense  smooth     PW     G-vecs:    dense   smooth      PW
     Sum        2357    1099    269               366833   116965   14571
 
     Using Slab Decomposition
 


     bravais-lattice index     =            8
     lattice parameter (alat)  =      10.6881  a.u.
     unit-cell volume          =    4181.1215 (a.u.)^3
     number of atoms/cell      =           10
     number of atomic types    =            3
     number of electrons       =        90.00
     number of Kohn-Sham states=           80
     kinetic-energy cutoff     =      35.0000  Ry
     charge density cutoff     =     300.0000  Ry
     scf convergence threshold =      5.0E-06
     mixing beta               =       0.7000
     number of iterations used =            8  plain     mixing
     Exchange-correlation= PBE
                           (   1   4   3   4   0   0   0)

     ================================================================================
 
                                  Environ Setup Summary

     ================================================================================
 
     Please cite

          O. Andreussi, I. Dabo and N. Marzari, J. Chem. Phys. 136, 064102 (2012)

     in publications or presentations arising from this work.

     ================================================================================
 
     Parameters
     ==========

     compensation onset threshold      =               0.1000E+03
     static permittivity               =                   100.00

     Solvent Boundary
     ================

     solvent mode                      =                     full
     derivatives method                =                    chain
     numerical core for derivatives    =                      fft
     switching function adopted        =                     SCCS
     density limit for vacuum region   =               0.5000E-02
     density limit for bulk solvent    =               0.1000E-03

     Electrostatic Setup
     ===================

     electrostatic problem to solve    =              generalized
     numerical solver adopted          =                       cg
     type of auxiliary density adopted =                     none
     numerical core for poisson        =                      fft
     type of pbc corrections           =                parabolic
     numerical core for corrections    =                      1da

     ================================================================================
 

     celldm(1)=  10.688100  celldm(2)=   0.866025  celldm(3)=   3.954220
     celldm(4)=   0.000000  celldm(5)=   0.000000  celldm(6)=   0.000000

     crystal axes: (cart. coord. in units of alat)
               a(1) = (   1.000000   0.000000   0.000000 )  
               a(2) = (   0.000000   0.866025   0.000000 )  
               a(3) = (   0.000000   0.000000   3.954220 )  

     reciprocal axes: (cart. coord. in units 2 pi/alat)
               b(1) = (  1.000000  0.000000  0.000000 )  
               b(2) = (  0.000000  1.154701  0.000000 )  
               b(3) = (  0.000000  0.000000  0.252894 )  


     PseudoPot. # 1 for C  read from file:
     MD5 check sum: c9ac5a99bc85b198593446162950cd17
     Pseudo is Ultrasoft, Zval =  4.0
     Generated by new atomic code, or converted to UPF format
     Using radial grid of  627 points,  4 beta functions with: 
                l(1) =   0
                l(2) =   0
                l(3) =   1
                l(4) =   1
     Q(r) pseudized with 0 coefficients 


     PseudoPot. # 2 for O  read from file:
     MD5 check sum: fadcf19ee70a498d3030e2e79cf929a4
     Pseudo is Ultrasoft, Zval =  6.0
     Generated by new atomic code, or converted to UPF format
     Using radial grid of 1269 points,  4 beta functions with: 
                l(1) =   0
                l(2) =   0
                l(3) =   1
                l(4) =   1
     Q(r) pseudized with 0 coefficients 


     PseudoPot. # 3 for Pt read from file:
     MD5 check sum: 957548fe13c2a9232dd96292d902c87c
     Pseudo is Ultrasoft + core correction, Zval = 10.0
     Generated using "atomic" code by A. Dal Corso  v.5.0.2 svn rev. 9415
     Using radial grid of 1277 points,  6 beta functions with: 
                l(1) =   0
                l(2) =   0
                l(3) =   1
                l(4) =   1
                l(5) =   2
                l(6) =   2
     Q(r) pseudized with 0 coefficients 


     atomic species   valence    mass     pseudopotential
        C              4.00     1.00000     C ( 1.00)
        O              6.00     1.00000     O ( 1.00)
        Pt            10.00     1.00000     Pt( 1.00)

     No symmetry found



   Cartesian axes

     site n.     atom                  positions (alat units)
         1           C   tau(   1) = (   0.4991611   0.4347567   1.2070461  )
         2           O   tau(   2) = (   0.4991542   0.4322212   1.4109013  )
         3           Pt  tau(   3) = (   0.7542339   0.0091745   0.8413229  )
         4           Pt  tau(   4) = (   0.2441023   0.0091745   0.8413226  )
         5           Pt  tau(   5) = (   0.0000034   0.4416918   0.8391348  )
         6           Pt  tau(   6) = (   0.4991682   0.4417635   0.8776299  )
         7           Pt  tau(   7) = (   0.0000038   0.7300598   0.4308181  )
         8           Pt  tau(   8) = (   0.4991683   0.7202168   0.4447460  )
         9           Pt  tau(   9) = (   0.2524172   0.2949237   0.4386572  )
        10           Pt  tau(  10) = (   0.7459196   0.2949237   0.4386575  )

     number of k points=     1  Marzari-Vanderbilt smearing, width (Ry)=  0.0300
                       cart. coord. in units 2pi/alat
        k(    1) = (   0.0000000   0.0000000   0.0000000), wk =   2.0000000

     Dense  grid:   183417 G-vectors     FFT dimensions: (  60,  54, 240)

     Smooth grid:    58483 G-vectors     FFT dimensions: (  45,  36, 160)

     Estimated max dynamical RAM per process >     754.41 MB

     Initial potential from superposition of free atoms

     starting charge      89.9986, renormalised to      90.0000

     negative rho (up, down):  3.086E-03 0.000E+00
     Starting wfcs are   80 randomized atomic wfcs

     total cpu time spent up to now is        4.9 secs

     Self-consistent Calculation

     iteration #  1     ecut=    35.00 Ry     beta= 0.70
     Davidson diagonalization with overlap
     ethr =  1.00E-02,  avg # of iterations =  9.0

     negative rho (up, down):  2.315E-03 0.000E+00

     add environment contribution to local potential
     Polarization accuracy = 7.0E-06, # of iterations =  21

     total cpu time spent up to now is        8.9 secs

     total energy              =    -623.08944551 Ry
     estimated scf accuracy    <       1.77531383 Ry
     electrostatic embedding   =       0.00000000 Ry
     correction to one-el term =       0.00000000 Ry

     iteration #  2     ecut=    35.00 Ry     beta= 0.70
     Davidson diagonalization with overlap
     ethr =  1.97E-03,  avg # of iterations =  9.0

     negative rho (up, down):  1.496E-02 0.000E+00

     add environment contribution to local potential
     Polarization accuracy = 8.9E-06, # of iterations =  32

     total cpu time spent up to now is       15.3 secs

     total energy              =    -621.50587599 Ry
     estimated scf accuracy    <      16.48861215 Ry
     electrostatic embedding   =      -0.02266468 Ry
     correction to one-el term =      30.86038278 Ry

     iteration #  3     ecut=    35.00 Ry     beta= 0.70
     Davidson diagonalization with overlap
     ethr =  1.97E-03,  avg # of iterations =  8.0

     negative rho (up, down):  9.996E-03 0.000E+00

     add environment contribution to local potential
     Polarization accuracy = 5.1E-06, # of iterations =  26

     total cpu time spent up to now is       20.0 secs

     total energy              =    -623.60094870 Ry
     estimated scf accuracy    <       6.06100124 Ry
     electrostatic embedding   =      -0.01104752 Ry
     correction to one-el term =      28.48532670 Ry

     iteration #  4     ecut=    35.00 Ry     beta= 0.70
     Davidson diagonalization with overlap
     ethr =  1.97E-03,  avg # of iterations =  1.0

     negative rho (up, down):  7.597E-03 0.000E+00

     add environment contribution to local potential
     Polarization accuracy = 3.5E-06, # of iterations =  25

     total cpu time spent up to now is       25.5 secs

     total energy              =    -623.74459379 Ry
     estimated scf accuracy    <       3.45012657 Ry
     electrostatic embedding   =      -0.03235638 Ry
     correction to one-el term =      27.99068899 Ry

     iteration #  5     ecut=    35.00 Ry     beta= 0.70
     Davidson diagonalization with overlap
     ethr =  1.97E-03,  avg # of iterations =  1.0

     negative rho (up, down):  7.043E-03 0.000E+00

     add environment contribution to local potential
     Polarization accuracy = 5.4E-06, # of iterations =  25

     total cpu time spent up to now is       29.7 secs

     total energy              =    -624.04247051 Ry
     estimated scf accuracy    <       0.79374381 Ry
     electrostatic embedding   =      -0.01157047 Ry
     correction to one-el term =      28.03357321 Ry

     iteration #  6     ecut=    35.00 Ry     beta= 0.70
     Davidson diagonalization with overlap
     ethr =  8.82E-04,  avg # of iterations =  1.0

     negative rho (up, down):  5.347E-03 0.000E+00

     add environment contribution to local potential
     Polarization accuracy = 6.1E-06, # of iterations =  23

     total cpu time spent up to now is       34.1 secs

     total energy              =    -624.12601238 Ry
     estimated scf accuracy    <       0.15438775 Ry
     electrostatic embedding   =      -0.01050343 Ry
     correction to one-el term =      27.38482698 Ry

     iteration #  7     ecut=    35.00 Ry     beta= 0.70
     Davidson diagonalization with overlap
     ethr =  1.72E-04,  avg # of iterations =  1.0

     negative rho (up, down):  4.077E-03 0.000E+00

     add environment contribution to local potential
     Polarization accuracy = 3.2E-06, # of iterations =  23

     total cpu time spent up to now is       39.3 secs

     total energy              =    -624.13171779 Ry
     estimated scf accuracy    <       0.07833128 Ry
     electrostatic embedding   =      -0.01032926 Ry
     correction to one-el term =      27.38476965 Ry

     iteration #  8     ecut=    35.00 Ry     beta= 0.70
     Davidson diagonalization with overlap
     ethr =  8.70E-05,  avg # of iterations =  1.0

     negative rho (up, down):  3.310E-03 0.000E+00

     add environment contribution to local potential
     Polarization accuracy = 1.4E-06, # of iterations =  23

     total cpu time spent up to now is       43.7 secs

     total energy              =    -624.13584554 Ry
     estimated scf accuracy    <       0.02947673 Ry
     electrostatic embedding   =      -0.01093610 Ry
     correction to one-el term =      27.27553564 Ry

     iteration #  9     ecut=    35.00 Ry     beta= 0.70
     Davidson diagonalization with overlap
     ethr =  3.28E-05,  avg # of iterations =  2.0

     negative rho (up, down):  3.167E-03 0.000E+00

     add environment contribution to local potential
     Polarization accuracy = 6.2E-06, # of iterations =  23

     total cpu time spent up to now is       48.8 secs

     total energy              =    -624.13873538 Ry
     estimated scf accuracy    <       0.01515275 Ry
     electrostatic embedding   =      -0.01083096 Ry
     correction to one-el term =      27.16087721 Ry

     iteration # 10     ecut=    35.00 Ry     beta= 0.70
     Davidson diagonalization with overlap
     ethr =  1.68E-05,  avg # of iterations =  7.0

     negative rho (up, down):  3.101E-03 0.000E+00

     add environment contribution to local potential
     Polarization accuracy = 3.7E-06, # of iterations =  23

     total cpu time spent up to now is       53.2 secs

     total energy              =    -624.13939339 Ry
     estimated scf accuracy    <       0.00797115 Ry
     electrostatic embedding   =      -0.01067844 Ry
     correction to one-el term =      26.89774523 Ry

     iteration # 11     ecut=    35.00 Ry     beta= 0.70
     Davidson diagonalization with overlap
     ethr =  8.86E-06,  avg # of iterations =  2.0

     negative rho (up, down):  3.095E-03 0.000E+00

     add environment contribution to local potential
     Polarization accuracy = 1.9E-06, # of iterations =  23

     total cpu time spent up to now is       58.4 secs

     total energy              =    -624.13983031 Ry
     estimated scf accuracy    <       0.00489384 Ry
     electrostatic embedding   =      -0.01040117 Ry
     correction to one-el term =      26.96924666 Ry

     iteration # 12     ecut=    35.00 Ry     beta= 0.70
     Davidson diagonalization with overlap
     ethr =  5.44E-06,  avg # of iterations =  7.0

     negative rho (up, down):  3.084E-03 0.000E+00

     add environment contribution to local potential
     Polarization accuracy = 6.7E-06, # of iterations =  23

     total cpu time spent up to now is       62.4 secs

     total energy              =    -624.14011815 Ry
     estimated scf accuracy    <       0.00512956 Ry
     electrostatic embedding   =      -0.01023071 Ry
     correction to one-el term =      26.94608248 Ry

     iteration # 13     ecut=    35.00 Ry     beta= 0.70
     Davidson diagonalization with overlap
     ethr =  5.44E-06,  avg # of iterations =  2.0

     negative rho (up, down):  3.059E-03 0.000E+00

     add environment contribution to local potential
     Polarization accuracy = 1.8E-06, # of iterations =  23

     total cpu time spent up to now is       66.8 secs

     total energy              =    -624.14040996 Ry
     estimated scf accuracy    <       0.00009508 Ry
     electrostatic embedding   =      -0.01009188 Ry
     correction to one-el term =      26.90771896 Ry

     iteration # 14     ecut=    35.00 Ry     beta= 0.70
     Davidson diagonalization with overlap
     ethr =  1.06E-07,  avg # of iterations =  2.0

     negative rho (up, down):  3.057E-03 0.000E+00

     add environment contribution to local potential
     Polarization accuracy = 3.6E-06, # of iterations =  23

     total cpu time spent up to now is       72.1 secs

     total energy              =    -624.14040015 Ry
     estimated scf accuracy    <       0.00018678 Ry
     electrostatic embedding   =      -0.01001175 Ry
     correction to one-el term =      26.89431056 Ry

     iteration # 15     ecut=    35.00 Ry     beta= 0.70
     Davidson diagonalization with overlap
     ethr =  1.06E-07,  avg # of iterations =  2.0

     negative rho (up, down):  3.057E-03 0.000E+00

     add environment contribution to local potential
     Polarization accuracy = 2.2E-06, # of iterations =  23

     total cpu time spent up to now is       75.8 secs

     total energy              =    -624.14041354 Ry
     estimated scf accuracy    <       0.00018838 Ry
     electrostatic embedding   =      -0.01003787 Ry
     correction to one-el term =      26.89551259 Ry

     iteration # 16     ecut=    35.00 Ry     beta= 0.70
     Davidson diagonalization with overlap
     ethr =  1.06E-07,  avg # of iterations =  1.0

     negative rho (up, down):  3.056E-03 0.000E+00

     add environment contribution to local potential
     Polarization accuracy = 1.9E-06, # of iterations =  23

     total cpu time spent up to now is       80.3 secs

     total energy              =    -624.14042727 Ry
     estimated scf accuracy    <       0.00003150 Ry
     electrostatic embedding   =      -0.01003294 Ry
     correction to one-el term =      26.89483987 Ry

     iteration # 17     ecut=    35.00 Ry     beta= 0.70
     Davidson diagonalization with overlap
     ethr =  3.50E-08,  avg # of iterations =  1.0

     negative rho (up, down):  3.055E-03 0.000E+00

     add environment contribution to local potential
     Polarization accuracy = 2.0E-06, # of iterations =  23

     total cpu time spent up to now is       85.5 secs

     total energy              =    -624.14042898 Ry
     estimated scf accuracy    <       0.00000597 Ry
     electrostatic embedding   =      -0.01002400 Ry
     correction to one-el term =      26.89248733 Ry

     iteration # 18     ecut=    35.00 Ry     beta= 0.70
     Davidson diagonalization with overlap
     ethr =  6.64E-09,  avg # of iterations =  1.0

     negative rho (up, down):  3.056E-03 0.000E+00

     the potential shift due to the Gaussian-smeared nuclei is    -0.4600 ev

     total cpu time spent up to now is       87.8 secs

     End of self-consistent calculation

          k = 0.0000 0.0000 0.0000 (  7286 PWs)   bands (ev):

   -28.9238 -15.1063 -13.3151 -12.4712 -11.7899 -11.7425 -11.7036 -11.0736
   -10.9242 -10.0760  -9.9332  -9.8391  -9.5746  -9.5509  -9.4807  -9.3270
    -8.6786  -8.6315  -8.5882  -8.4042  -8.3219  -8.2689  -8.2172  -8.1934
    -8.1778  -8.0087  -7.9625  -7.8862  -7.7912  -7.5272  -7.4246  -6.6890
    -6.5419  -6.4334  -6.1169  -6.0236  -5.9768  -5.8136  -5.6948  -5.5099
    -5.3478  -5.3010  -5.1149  -5.0897  -5.0568  -5.0281  -4.8533  -3.7767
    -3.3855  -3.3036  -2.8677  -2.2777  -2.1239  -1.1690  -0.8258  -0.7536
    -0.3298  -0.0494   0.6064   0.6218   0.9341   1.2961   2.2313   2.4474
     2.4498   2.7858   3.0334   3.3205   3.5707   3.6212   4.0505   4.2219
     4.4940   4.6221   4.9560   5.1288   5.3291   5.3810   5.4625   5.6031

     the Fermi energy is    -4.9420 ev

!    total energy              =    -624.14042808 Ry
     estimated scf accuracy    <       0.00000193 Ry
     smearing contrib. (-TS)   =      -0.00519167 Ry
     internal energy E=F+TS    =    -624.13523641 Ry

     The total energy is F=E-TS. E is the sum of the following terms:
     one-electron contribution =   -3992.56769100 Ry
     hartree contribution      =    2031.53046195 Ry
     xc contribution           =    -263.18427348 Ry
     ewald contribution        =    1573.20467954 Ry
     electrostatic embedding   =      -0.01001499 Ry
     correction to one-el term =      26.89160157 Ry

     WARNING: you are using the parabolic pbc correction;
              the potential shift above must be added to 
              band and Fermi energies.

     convergence has been achieved in  18 iterations

     negative rho (up, down):  3.056E-03 0.000E+00

     Forces acting on atoms (cartesian axes, Ry/au):

     atom    1 type  1   force =     0.00006806   -0.00672642    0.03987696
     atom    2 type  2   force =    -0.00016033    0.00189300   -0.00658780
     atom    3 type  3   force =    -0.00177370    0.01025301    0.03349278
     atom    4 type  3   force =     0.00281055    0.01050344    0.03402058
     atom    5 type  3   force =    -0.00173987    0.01539972   -0.00748508
     atom    6 type  3   force =     0.00070583    0.00978438    0.05244174
     atom    7 type  3   force =    -0.00147995   -0.01178746   -0.04330664
     atom    8 type  3   force =     0.00042317   -0.01079641   -0.02909780
     atom    9 type  3   force =     0.01399164   -0.00943800   -0.03693333
     atom   10 type  3   force =    -0.01284541   -0.00908526   -0.03642142

     Total force =     0.116334     Total SCF correction =     0.002579

 
     init_run     :      4.44s CPU      4.77s WALL (       1 calls)
     electrons    :     77.61s CPU     82.92s WALL (       1 calls)
     forces       :      3.62s CPU      3.92s WALL (       1 calls)

     Called by init_run:
     wfcinit      :      0.28s CPU      0.32s WALL (       1 calls)
     potinit      :      0.90s CPU      0.96s WALL (       1 calls)
     hinit0       :      2.77s CPU      2.79s WALL (       1 calls)

     Called by electrons:
     c_bands      :     15.63s CPU     15.93s WALL (      18 calls)
     sum_band     :     13.87s CPU     15.85s WALL (      18 calls)
     v_of_rho     :      5.58s CPU      6.40s WALL (      19 calls)
     newd         :      9.29s CPU     11.34s WALL (      19 calls)
     mix_rho      :      0.59s CPU      0.59s WALL (      18 calls)

     Called by c_bands:
     init_us_2    :      0.14s CPU      0.15s WALL (      37 calls)
     init_us_2:cp :      0.14s CPU      0.15s WALL (      37 calls)
     regterg      :     14.44s CPU     14.73s WALL (      18 calls)

     Called by *egterg:
     rdiaghg      :      0.35s CPU      0.35s WALL (      76 calls)
     h_psi        :     11.77s CPU     12.04s WALL (      77 calls)
     s_psi        :      0.54s CPU      0.54s WALL (      77 calls)
     g_psi        :      0.04s CPU      0.04s WALL (      58 calls)

     Called by h_psi:
     h_psi:calbec :      0.54s CPU      0.54s WALL (      77 calls)
     vloc_psi     :     10.66s CPU     10.92s WALL (      77 calls)
     add_vuspsi   :      0.53s CPU      0.53s WALL (      77 calls)

     General routines
     calbec       :      0.80s CPU      0.80s WALL (      99 calls)
     fft          :      1.81s CPU      1.90s WALL (     216 calls)
     ffts         :      0.11s CPU      0.11s WALL (      37 calls)
     fftw         :     10.63s CPU     10.87s WALL (    4080 calls)
     interpolate  :      0.27s CPU      0.27s WALL (      19 calls)
 
     Parallel routines
 
     Environ routines
 
     PWSCF        :   1m25.79s CPU   1m31.77s WALL

 
   This run was terminated on:  20:47: 7  22Apr2022            

=------------------------------------------------------------------------------=
   JOB DONE.
=------------------------------------------------------------------------------=

%%%% CELL %%%%%%%%%%%%%%%%%%%%%%%%%%%%%%%%%%%%%%%%%%%%%%%%%%%%%%%%%%%%%%%%%%%%%%

 cell label                 = system         

 cell volume                =    4181.121453

%%%% IONS %%%%%%%%%%%%%%%%%%%%%%%%%%%%%%%%%%%%%%%%%%%%%%%%%%%%%%%%%%%%%%%%%%%%%%

 total charge               =    -90.0000000
 center of charge           =      4.0248944     3.9428091     7.0115639
 dipole                     =      0.0000000     0.0000000     0.0000000
 quadrupole (pc)            =   -731.9089570  -614.9962595  -919.0541247
 quadrupole (gauss)         =   -743.1589570  -626.2462595  -930.3041247

   i | type | coordinates
 -----------------------------------------------------------------------
   1 |    1 |                      5.3350841     4.6467234    12.9010299
   2 |    2 |                      5.3350096     4.6196233    15.0798543
   3 |    3 |                      8.0613271     0.0980580     8.9921429
   4 |    3 |                      2.6089894     0.0980583     8.9921406
   5 |    3 |                      0.0000366     4.7208463     8.9687569
   6 |    3 |                      5.3351596     4.7216127     9.3801964
   7 |    3 |                      0.0000411     7.8029520     4.6046265
   8 |    3 |                      5.3351612     7.6977491     4.7534894
   9 |    3 |                      2.6978606     3.1521739     4.6884123
  10 |    3 |                      7.9724637     3.1521745     4.6884152

%%%% SYSTEM %%%%%%%%%%%%%%%%%%%%%%%%%%%%%%%%%%%%%%%%%%%%%%%%%%%%%%%%%%%%%%%%%%%%

 system is built from all present ionic types

 system defined dimension   =              0
 system defined axis        =              3

 system center              =      4.0248944     3.9428091     7.0115639
 system width               =      8.2019381

%%%% IONS %%%%%%%%%%%%%%%%%%%%%%%%%%%%%%%%%%%%%%%%%%%%%%%%%%%%%%%%%%%%%%%%%%%%%%

 total charge               =    -90.0000000
 center of charge           =      4.0248944     3.9428091     7.0115639
 dipole                     =      0.0000000     0.0000000     0.0000000
 quadrupole (pc)            =   -731.9089570  -614.9962595  -919.0541247
 quadrupole (gauss)         =   -743.1589570  -626.2462595  -930.3041247

   i | type | coordinates
 -----------------------------------------------------------------------
   1 |    1 |                      5.3350841     4.6467234    12.9010299
   2 |    2 |                      5.3350096     4.6196233    15.0798543
   3 |    3 |                      8.0613271     0.0980580     8.9921429
   4 |    3 |                      2.6089894     0.0980583     8.9921406
   5 |    3 |                      0.0000366     4.7208463     8.9687569
   6 |    3 |                      5.3351596     4.7216127     9.3801964
   7 |    3 |                      0.0000411     7.8029520     4.6046265
   8 |    3 |                      5.3351612     7.6977491     4.7534894
   9 |    3 |                      2.6978606     3.1521739     4.6884123
  10 |    3 |                      7.9724637     3.1521745     4.6884152

%%%% SYSTEM %%%%%%%%%%%%%%%%%%%%%%%%%%%%%%%%%%%%%%%%%%%%%%%%%%%%%%%%%%%%%%%%%%%%

 system is built from all present ionic types

 system defined dimension   =              0
 system defined axis        =              3

 system center              =      4.0248944     3.9428091     7.0115639
 system width               =      8.2019381

%%%% CHARGES %%%%%%%%%%%%%%%%%%%%%%%%%%%%%%%%%%%%%%%%%%%%%%%%%%%%%%%%%%%%%%%%%%%

 total number of charges    =             10

 total charge               =    -90.0000000

%%%% CHARGES %%%%%%%%%%%%%%%%%%%%%%%%%%%%%%%%%%%%%%%%%%%%%%%%%%%%%%%%%%%%%%%%%%%

 total number of charges    =             10

 total charge               =    -90.0000000

%%%% CELL %%%%%%%%%%%%%%%%%%%%%%%%%%%%%%%%%%%%%%%%%%%%%%%%%%%%%%%%%%%%%%%%%%%%%%

 cell label                 = system         

 cell volume                =    4181.121453

%%%% ELECTRONS %%%%%%%%%%%%%%%%%%%%%%%%%%%%%%%%%%%%%%%%%%%%%%%%%%%%%%%%%%%%%%%%%

 number of electrons        =             90

 total electronic charge    =     90.0000000

%%%% ELECTRONS %%%%%%%%%%%%%%%%%%%%%%%%%%%%%%%%%%%%%%%%%%%%%%%%%%%%%%%%%%%%%%%%%

 number of electrons        =             90

 total electronic charge    =     90.0000000

%%%% CHARGES %%%%%%%%%%%%%%%%%%%%%%%%%%%%%%%%%%%%%%%%%%%%%%%%%%%%%%%%%%%%%%%%%%%

 total number of charges    =            100

 total charge               =     -0.0000000

%%%% CHARGES %%%%%%%%%%%%%%%%%%%%%%%%%%%%%%%%%%%%%%%%%%%%%%%%%%%%%%%%%%%%%%%%%%%

 total number of charges    =            100

 total charge               =     -0.0000000

%%%% BOUNDARY %%%%%%%%%%%%%%%%%%%%%%%%%%%%%%%%%%%%%%%%%%%%%%%%%%%%%%%%%%%%%%%%%%

 boundary label             = solvent             
 boundary mode              = full                

 using the optimal SCCS function:
 rhomax                     =      0.0050000
 rhomin                     =      0.0001000

 volume of the QM region    =   1490.4229533

 surface of the QM region   =    256.4250495

%%%% DENSITY %%%%%%%%%%%%%%%%%%%%%%%%%%%%%%%%%%%%%%%%%%%%%%%%%%%%%%%%%%%%%%%%%%%

 density label              = dvtot                                             

 integral of density        =    0.000000000    

%%%% DENSITY %%%%%%%%%%%%%%%%%%%%%%%%%%%%%%%%%%%%%%%%%%%%%%%%%%%%%%%%%%%%%%%%%%%

 density label              = vreference                                        

 integral of density        =    0.000000000    

%%%% DENSITY %%%%%%%%%%%%%%%%%%%%%%%%%%%%%%%%%%%%%%%%%%%%%%%%%%%%%%%%%%%%%%%%%%%

 density label              = velectrostatic                                    

 integral of density        =    0.000000000    

%%%% CHARGES %%%%%%%%%%%%%%%%%%%%%%%%%%%%%%%%%%%%%%%%%%%%%%%%%%%%%%%%%%%%%%%%%%%

 total number of charges    =            100

 total charge               =     -0.0000000

%%%% DENSITY %%%%%%%%%%%%%%%%%%%%%%%%%%%%%%%%%%%%%%%%%%%%%%%%%%%%%%%%%%%%%%%%%%%

 density label              = vsoftcavity                                       

 integral of density        =    0.000000000    

%%%% ELECTRONS %%%%%%%%%%%%%%%%%%%%%%%%%%%%%%%%%%%%%%%%%%%%%%%%%%%%%%%%%%%%%%%%%

 number of electrons        =             90

 total electronic charge    =     90.0000000

%%%% ELECTRONS %%%%%%%%%%%%%%%%%%%%%%%%%%%%%%%%%%%%%%%%%%%%%%%%%%%%%%%%%%%%%%%%%

 number of electrons        =             90

 total electronic charge    =     90.0000000

%%%% CHARGES %%%%%%%%%%%%%%%%%%%%%%%%%%%%%%%%%%%%%%%%%%%%%%%%%%%%%%%%%%%%%%%%%%%

 total number of charges    =            100

 total charge               =     -0.0000000

%%%% CHARGES %%%%%%%%%%%%%%%%%%%%%%%%%%%%%%%%%%%%%%%%%%%%%%%%%%%%%%%%%%%%%%%%%%%

 total number of charges    =            100

 total charge               =     -0.0000000

%%%% BOUNDARY %%%%%%%%%%%%%%%%%%%%%%%%%%%%%%%%%%%%%%%%%%%%%%%%%%%%%%%%%%%%%%%%%%

 boundary label             = solvent             
 boundary mode              = full                

 using the optimal SCCS function:
 rhomax                     =      0.0050000
 rhomin                     =      0.0001000

 volume of the QM region    =   1521.9620843

 surface of the QM region   =    251.4820985

%%%% DENSITY %%%%%%%%%%%%%%%%%%%%%%%%%%%%%%%%%%%%%%%%%%%%%%%%%%%%%%%%%%%%%%%%%%%

 density label              = vreference                                        

 integral of density        =  -0.1689737346E-11

%%%% COMPUTE ELECTROSTATIC POTENTIAL %%%%%%%%%%%%%%%%%%%%%%%%%%%%%%%%%%%%%%%%%%%

   i |      alpha     |       pAp      |      rzold     |    delta_qm    |    delta_en    |       tol
 ---------------------------------------------------------------------------------------------------------
   1 |   0.999740E+00 |   0.128343E+04 |   0.128310E+04 |   0.229406E-01 |   0.409229E+03 |   0.100000E-04
   2 |   0.731490E-01 |   0.306702E+02 |   0.224349E+01 |   0.252103E-01 |   0.494212E+03 |   0.100000E-04
   3 |   0.764434E-01 |   0.187198E+02 |   0.143101E+01 |   0.133471E-01 |   0.138526E+03 |   0.100000E-04
   4 |   0.821275E+00 |   0.389414E-01 |   0.319815E-01 |   0.184270E-01 |   0.264038E+03 |   0.100000E-04
   5 |   0.301060E+00 |   0.221967E+00 |   0.668253E-01 |   0.133347E-01 |   0.138267E+03 |   0.100000E-04
   6 |   0.232326E+00 |  -0.903105E+00 |  -0.209815E+00 |   0.287862E-02 |   0.644353E+01 |   0.100000E-04
   7 |   0.427912E+00 |   0.178866E-01 |   0.765389E-02 |   0.733518E-03 |   0.418386E+00 |   0.100000E-04
   8 |   0.406798E+00 |   0.143224E-02 |   0.582633E-03 |   0.351185E-03 |   0.959020E-01 |   0.100000E-04
   9 |   0.349969E+00 |   0.289208E-03 |   0.101214E-03 |   0.298421E-03 |   0.692491E-01 |   0.100000E-04
  10 |   0.492099E+00 |   0.376176E-04 |   0.185116E-04 |   0.261048E-03 |   0.529903E-01 |   0.100000E-04
  11 |   0.751392E+00 |   0.141492E-04 |   0.106316E-04 |   0.223605E-03 |   0.388793E-01 |   0.100000E-04
  12 |   0.152954E+01 |   0.760731E-05 |   0.116357E-04 |   0.283422E-03 |   0.624629E-01 |   0.100000E-04
  13 |   0.916917E+00 |   0.155530E-04 |   0.142608E-04 |   0.305026E-03 |   0.723485E-01 |   0.100000E-04
  14 |   0.335888E+00 |   0.520933E-04 |   0.174975E-04 |   0.322382E-03 |   0.808160E-01 |   0.100000E-04
  15 |   0.741245E-01 |   0.980205E-03 |   0.726572E-04 |   0.259498E-03 |   0.523630E-01 |   0.100000E-04
  16 |   0.678274E+00 |   0.306334E-04 |   0.207778E-04 |   0.185479E-03 |   0.267514E-01 |   0.100000E-04
  17 |   0.925476E+00 |   0.173752E-04 |   0.160803E-04 |   0.962340E-04 |   0.720135E-02 |   0.100000E-04
  18 |   0.618266E+00 |   0.745800E-05 |   0.461103E-05 |   0.418515E-04 |   0.136200E-02 |   0.100000E-04
  19 |   0.617400E+00 |   0.606900E-06 |   0.374700E-06 |   0.183875E-04 |   0.262908E-03 |   0.100000E-04
  20 |   0.583661E+00 |   0.789087E-07 |   0.460560E-07 |   0.881868E-05 |   0.604733E-04 |   0.100000E-04
  21 |   0.718026E+00 |   0.179043E-07 |   0.128557E-07 |   0.299767E-05 |   0.698754E-05 |   0.100000E-04

 Charges are converged, EXIT

%%%% DENSITY %%%%%%%%%%%%%%%%%%%%%%%%%%%%%%%%%%%%%%%%%%%%%%%%%%%%%%%%%%%%%%%%%%%

 density label              = velectrostatic                                    

 integral of density        =   -1676.548700    

%%%% CHARGES %%%%%%%%%%%%%%%%%%%%%%%%%%%%%%%%%%%%%%%%%%%%%%%%%%%%%%%%%%%%%%%%%%%

 total number of charges    =            100

 total charge               =     -0.0000000

%%%% DENSITY %%%%%%%%%%%%%%%%%%%%%%%%%%%%%%%%%%%%%%%%%%%%%%%%%%%%%%%%%%%%%%%%%%%

 density label              = vsoftcavity                                       

 integral of density        =    11.59056210    

%%%% DENSITY %%%%%%%%%%%%%%%%%%%%%%%%%%%%%%%%%%%%%%%%%%%%%%%%%%%%%%%%%%%%%%%%%%%

 density label              = dvtot                                             

 integral of density        =   -1664.958138    

%%%% ELECTRONS %%%%%%%%%%%%%%%%%%%%%%%%%%%%%%%%%%%%%%%%%%%%%%%%%%%%%%%%%%%%%%%%%

 number of electrons        =             90

 total electronic charge    =     90.0000000

%%%% ELECTRONS %%%%%%%%%%%%%%%%%%%%%%%%%%%%%%%%%%%%%%%%%%%%%%%%%%%%%%%%%%%%%%%%%

 number of electrons        =             90

 total electronic charge    =     90.0000000

%%%% CHARGES %%%%%%%%%%%%%%%%%%%%%%%%%%%%%%%%%%%%%%%%%%%%%%%%%%%%%%%%%%%%%%%%%%%

 total number of charges    =            100

 total charge               =      0.0000000

%%%% CHARGES %%%%%%%%%%%%%%%%%%%%%%%%%%%%%%%%%%%%%%%%%%%%%%%%%%%%%%%%%%%%%%%%%%%

 total number of charges    =            100

 total charge               =      0.0000000

%%%% BOUNDARY %%%%%%%%%%%%%%%%%%%%%%%%%%%%%%%%%%%%%%%%%%%%%%%%%%%%%%%%%%%%%%%%%%

 boundary label             = solvent             
 boundary mode              = full                

 using the optimal SCCS function:
 rhomax                     =      0.0050000
 rhomin                     =      0.0001000

 volume of the QM region    =   1502.6696645

 surface of the QM region   =    285.8606339

%%%% DENSITY %%%%%%%%%%%%%%%%%%%%%%%%%%%%%%%%%%%%%%%%%%%%%%%%%%%%%%%%%%%%%%%%%%%

 density label              = vreference                                        

 integral of density        =  -0.4471297782E-11

%%%% COMPUTE ELECTROSTATIC POTENTIAL %%%%%%%%%%%%%%%%%%%%%%%%%%%%%%%%%%%%%%%%%%%

 Warning: Bad guess with residual norm =   0.137551E+05, reset to no guess

   i |      alpha     |       pAp      |      rzold     |    delta_qm    |    delta_en    |       tol
 ---------------------------------------------------------------------------------------------------------
   1 |   0.999402E+00 |   0.127660E+04 |   0.127584E+04 |   0.132921E+00 |   0.137386E+05 |   0.100000E-04
   2 |   0.261293E-01 |   0.103444E+04 |   0.270293E+02 |   0.394216E-01 |   0.120844E+04 |   0.100000E-04
   3 |  -0.374668E-01 |   0.736931E+00 |  -0.276104E-01 |   0.341492E-01 |   0.906811E+03 |   0.100000E-04
   4 |   0.892430E+00 |   0.321472E-01 |   0.286891E-01 |   0.829069E-02 |   0.534488E+02 |   0.100000E-04
   5 |   0.269914E+00 |   0.862921E-01 |   0.232914E-01 |   0.379857E-02 |   0.112201E+02 |   0.100000E-04
   6 |   0.555235E+00 |   0.405152E-02 |   0.224955E-02 |   0.939427E-02 |   0.686250E+02 |   0.100000E-04
   7 |  -0.117945E+01 |  -0.185145E-02 |   0.218369E-02 |   0.121268E-01 |   0.114353E+03 |   0.100000E-04
   8 |   0.193524E+00 |   0.382259E-01 |   0.739765E-02 |   0.125832E-02 |   0.123122E+01 |   0.100000E-04
   9 |   0.335789E+00 |   0.104174E-02 |   0.349803E-03 |   0.120298E-02 |   0.112532E+01 |   0.100000E-04
  10 |   0.523114E+00 |   0.143196E-03 |   0.749080E-04 |   0.126164E-02 |   0.123774E+01 |   0.100000E-04
  11 |   0.105368E+01 |   0.659580E-04 |   0.694988E-04 |   0.145001E-02 |   0.163493E+01 |   0.100000E-04
  12 |   0.334625E+01 |   0.404342E-04 |   0.135303E-03 |   0.312880E-02 |   0.761224E+01 |   0.100000E-04
  13 |   0.903595E-01 |   0.128990E-01 |   0.116555E-02 |   0.315960E-02 |   0.776284E+01 |   0.100000E-04
  14 |   0.704814E+00 |   0.378808E-02 |   0.266989E-02 |   0.902873E-02 |   0.633883E+02 |   0.100000E-04
  15 |   0.119456E+01 |   0.450240E-02 |   0.537837E-02 |   0.259339E-01 |   0.522986E+03 |   0.100000E-04
  16 |  -0.482629E+00 |  -0.673005E-01 |   0.324812E-01 |   0.132721E-01 |   0.136973E+03 |   0.100000E-04
  17 |   0.379667E+00 |   0.287180E-01 |   0.109033E-01 |   0.320573E-02 |   0.799115E+01 |   0.100000E-04
  18 |   0.545979E+00 |   0.170167E-02 |   0.929077E-03 |   0.158902E-02 |   0.196343E+01 |   0.100000E-04
  19 |   0.580866E+00 |   0.230090E-03 |   0.133651E-03 |   0.107498E-02 |   0.898587E+00 |   0.100000E-04
  20 |   0.628277E+00 |   0.996198E-04 |   0.625888E-04 |   0.643877E-03 |   0.322376E+00 |   0.100000E-04
  21 |   0.701484E+00 |   0.365374E-04 |   0.256304E-04 |   0.549167E-03 |   0.234512E+00 |   0.100000E-04
  22 |   0.350685E-01 |   0.458209E-04 |   0.160687E-05 |   0.574216E-03 |   0.256394E+00 |   0.100000E-04
  23 |  -0.336716E+01 |   0.510901E-06 |  -0.172029E-05 |   0.296002E-03 |   0.681312E-01 |   0.100000E-04
  24 |   0.347558E-01 |   0.846006E-03 |   0.294036E-04 |   0.272132E-03 |   0.575859E-01 |   0.100000E-04
  25 |   0.546212E+00 |   0.911768E-05 |   0.498019E-05 |   0.194322E-03 |   0.293631E-01 |   0.100000E-04
  26 |   0.596318E+00 |   0.228841E-05 |   0.136462E-05 |   0.108347E-03 |   0.912837E-02 |   0.100000E-04
  27 |   0.235340E+00 |   0.665239E-05 |   0.156557E-05 |   0.646196E-04 |   0.324702E-02 |   0.100000E-04
  28 |   0.560724E+00 |   0.658785E-06 |   0.369396E-06 |   0.346433E-04 |   0.933244E-03 |   0.100000E-04
  29 |   0.644405E+00 |   0.119686E-06 |   0.771261E-07 |   0.194870E-04 |   0.295290E-03 |   0.100000E-04
  30 |   0.623789E+00 |   0.404325E-07 |   0.252214E-07 |   0.126599E-04 |   0.124628E-03 |   0.100000E-04
  31 |   0.741341E+00 |   0.101622E-07 |   0.753368E-08 |   0.622658E-05 |   0.301478E-04 |   0.100000E-04
  32 |   0.543376E+00 |   0.387984E-08 |   0.210821E-08 |   0.337927E-05 |   0.887976E-05 |   0.100000E-04

 Charges are converged, EXIT

%%%% DENSITY %%%%%%%%%%%%%%%%%%%%%%%%%%%%%%%%%%%%%%%%%%%%%%%%%%%%%%%%%%%%%%%%%%%

 density label              = velectrostatic                                    

 integral of density        =   -1358.080955    

%%%% CHARGES %%%%%%%%%%%%%%%%%%%%%%%%%%%%%%%%%%%%%%%%%%%%%%%%%%%%%%%%%%%%%%%%%%%

 total number of charges    =            100

 total charge               =      0.0000000

%%%% DENSITY %%%%%%%%%%%%%%%%%%%%%%%%%%%%%%%%%%%%%%%%%%%%%%%%%%%%%%%%%%%%%%%%%%%

 density label              = vsoftcavity                                       

 integral of density        =    10.75980118    

%%%% DENSITY %%%%%%%%%%%%%%%%%%%%%%%%%%%%%%%%%%%%%%%%%%%%%%%%%%%%%%%%%%%%%%%%%%%

 density label              = dvtot                                             

 integral of density        =   -1347.321154    

%%%% ELECTRONS %%%%%%%%%%%%%%%%%%%%%%%%%%%%%%%%%%%%%%%%%%%%%%%%%%%%%%%%%%%%%%%%%

 number of electrons        =             90

 total electronic charge    =     90.0000000

%%%% ELECTRONS %%%%%%%%%%%%%%%%%%%%%%%%%%%%%%%%%%%%%%%%%%%%%%%%%%%%%%%%%%%%%%%%%

 number of electrons        =             90

 total electronic charge    =     90.0000000

%%%% CHARGES %%%%%%%%%%%%%%%%%%%%%%%%%%%%%%%%%%%%%%%%%%%%%%%%%%%%%%%%%%%%%%%%%%%

 total number of charges    =            100

 total charge               =      0.0000000

%%%% CHARGES %%%%%%%%%%%%%%%%%%%%%%%%%%%%%%%%%%%%%%%%%%%%%%%%%%%%%%%%%%%%%%%%%%%

 total number of charges    =            100

 total charge               =      0.0000000

%%%% BOUNDARY %%%%%%%%%%%%%%%%%%%%%%%%%%%%%%%%%%%%%%%%%%%%%%%%%%%%%%%%%%%%%%%%%%

 boundary label             = solvent             
 boundary mode              = full                

 using the optimal SCCS function:
 rhomax                     =      0.0050000
 rhomin                     =      0.0001000

 volume of the QM region    =   1500.3327894

 surface of the QM region   =    270.4597092

%%%% DENSITY %%%%%%%%%%%%%%%%%%%%%%%%%%%%%%%%%%%%%%%%%%%%%%%%%%%%%%%%%%%%%%%%%%%

 density label              = vreference                                        

 integral of density        =  -0.2721435607E-11

%%%% COMPUTE ELECTROSTATIC POTENTIAL %%%%%%%%%%%%%%%%%%%%%%%%%%%%%%%%%%%%%%%%%%%

 Warning: Bad guess with residual norm =   0.296421E+05, reset to no guess

   i |      alpha     |       pAp      |      rzold     |    delta_qm    |    delta_en    |       tol
 ---------------------------------------------------------------------------------------------------------
   1 |   0.997410E+00 |   0.127801E+04 |   0.127470E+04 |   0.194739E+00 |   0.294892E+05 |   0.100000E-04
   2 |   0.300784E-01 |   0.348690E+04 |   0.104880E+03 |   0.168062E-01 |   0.219631E+03 |   0.100000E-04
   3 |   0.145066E+00 |   0.168541E+01 |   0.244495E+00 |   0.143151E-01 |   0.159347E+03 |   0.100000E-04
   4 |   0.139030E+01 |   0.600389E-02 |   0.834719E-02 |   0.396030E-01 |   0.121958E+04 |   0.100000E-04
   5 |  -0.132312E+00 |  -0.744005E+00 |   0.984407E-01 |   0.673582E-02 |   0.352807E+02 |   0.100000E-04
   6 |  -0.131889E+00 |   0.183218E-01 |  -0.241644E-02 |   0.427119E-02 |   0.141858E+02 |   0.100000E-04
   7 |   0.872464E+00 |   0.263269E-02 |   0.229693E-02 |   0.179282E-02 |   0.249938E+01 |   0.100000E-04
   8 |   0.536242E+00 |   0.166165E-02 |   0.891047E-03 |   0.235230E-02 |   0.430271E+01 |   0.100000E-04
   9 |   0.599298E+00 |   0.570755E-03 |   0.342053E-03 |   0.262110E-02 |   0.534223E+01 |   0.100000E-04
  10 |   0.173153E+01 |   0.279489E-03 |   0.483945E-03 |   0.263704E-02 |   0.540743E+01 |   0.100000E-04
  11 |   0.222641E+01 |   0.718114E-03 |   0.159882E-02 |   0.356084E-02 |   0.985964E+01 |   0.100000E-04
  12 |   0.614794E+00 |   0.632142E-02 |   0.388637E-02 |   0.334770E-02 |   0.871461E+01 |   0.100000E-04
  13 |   0.472739E-01 |   0.948788E-01 |   0.448529E-02 |   0.344017E-02 |   0.920272E+01 |   0.100000E-04
  14 |   0.360396E+00 |   0.589358E-02 |   0.212402E-02 |   0.244091E-02 |   0.463296E+01 |   0.100000E-04
  15 |   0.377404E+00 |   0.137282E-02 |   0.518106E-03 |   0.192794E-02 |   0.289029E+01 |   0.100000E-04
  16 |   0.727041E+00 |   0.391962E-03 |   0.284972E-03 |   0.107288E-02 |   0.895077E+00 |   0.100000E-04
  17 |   0.631503E+00 |   0.280773E-03 |   0.177309E-03 |   0.631151E-03 |   0.309758E+00 |   0.100000E-04
  18 |   0.601499E+00 |   0.114584E-03 |   0.689224E-04 |   0.330886E-03 |   0.851357E-01 |   0.100000E-04
  19 |   0.554191E+00 |   0.155085E-04 |   0.859465E-05 |   0.169504E-03 |   0.223417E-01 |   0.100000E-04
  20 |   0.730206E+00 |   0.263777E-05 |   0.192612E-05 |   0.991286E-04 |   0.764107E-02 |   0.100000E-04
  21 |   0.912219E+00 |   0.651875E-06 |   0.594652E-06 |   0.399204E-04 |   0.123922E-02 |   0.100000E-04
  22 |   0.644927E+00 |   0.223784E-06 |   0.144324E-06 |   0.241165E-04 |   0.452255E-03 |   0.100000E-04
  23 |   0.589111E-01 |   0.124633E-05 |   0.734226E-07 |   0.226457E-04 |   0.398775E-03 |   0.100000E-04
  24 |   0.298165E+00 |   0.208762E-06 |   0.622455E-07 |   0.128794E-04 |   0.128988E-03 |   0.100000E-04
  25 |   0.690281E+00 |   0.132608E-07 |   0.915368E-08 |   0.491158E-05 |   0.187585E-04 |   0.100000E-04
  26 |   0.689754E+00 |   0.309894E-08 |   0.213751E-08 |   0.256402E-05 |   0.511208E-05 |   0.100000E-04

 Charges are converged, EXIT

%%%% DENSITY %%%%%%%%%%%%%%%%%%%%%%%%%%%%%%%%%%%%%%%%%%%%%%%%%%%%%%%%%%%%%%%%%%%

 density label              = velectrostatic                                    

 integral of density        =   -1350.317682    

%%%% CHARGES %%%%%%%%%%%%%%%%%%%%%%%%%%%%%%%%%%%%%%%%%%%%%%%%%%%%%%%%%%%%%%%%%%%

 total number of charges    =            100

 total charge               =      0.0000000

%%%% DENSITY %%%%%%%%%%%%%%%%%%%%%%%%%%%%%%%%%%%%%%%%%%%%%%%%%%%%%%%%%%%%%%%%%%%

 density label              = vsoftcavity                                       

 integral of density        =    16.61248810    

%%%% DENSITY %%%%%%%%%%%%%%%%%%%%%%%%%%%%%%%%%%%%%%%%%%%%%%%%%%%%%%%%%%%%%%%%%%%

 density label              = dvtot                                             

 integral of density        =   -1333.705194    

%%%% ELECTRONS %%%%%%%%%%%%%%%%%%%%%%%%%%%%%%%%%%%%%%%%%%%%%%%%%%%%%%%%%%%%%%%%%

 number of electrons        =             90

 total electronic charge    =     90.0000000

%%%% ELECTRONS %%%%%%%%%%%%%%%%%%%%%%%%%%%%%%%%%%%%%%%%%%%%%%%%%%%%%%%%%%%%%%%%%

 number of electrons        =             90

 total electronic charge    =     90.0000000

%%%% CHARGES %%%%%%%%%%%%%%%%%%%%%%%%%%%%%%%%%%%%%%%%%%%%%%%%%%%%%%%%%%%%%%%%%%%

 total number of charges    =            100

 total charge               =      0.0000000

%%%% CHARGES %%%%%%%%%%%%%%%%%%%%%%%%%%%%%%%%%%%%%%%%%%%%%%%%%%%%%%%%%%%%%%%%%%%

 total number of charges    =            100

 total charge               =      0.0000000

%%%% BOUNDARY %%%%%%%%%%%%%%%%%%%%%%%%%%%%%%%%%%%%%%%%%%%%%%%%%%%%%%%%%%%%%%%%%%

 boundary label             = solvent             
 boundary mode              = full                

 using the optimal SCCS function:
 rhomax                     =      0.0050000
 rhomin                     =      0.0001000

 volume of the QM region    =   1494.0603345

 surface of the QM region   =    263.4081836

%%%% DENSITY %%%%%%%%%%%%%%%%%%%%%%%%%%%%%%%%%%%%%%%%%%%%%%%%%%%%%%%%%%%%%%%%%%%

 density label              = vreference                                        

 integral of density        =   0.4604528381E-11

%%%% COMPUTE ELECTROSTATIC POTENTIAL %%%%%%%%%%%%%%%%%%%%%%%%%%%%%%%%%%%%%%%%%%%

 Warning: Bad guess with residual norm =   0.630436E+04, reset to no guess

   i |      alpha     |       pAp      |      rzold     |    delta_qm    |    delta_en    |       tol
 ---------------------------------------------------------------------------------------------------------
   1 |   0.999312E+00 |   0.127331E+04 |   0.127243E+04 |   0.899797E-01 |   0.629572E+04 |   0.100000E-04
   2 |   0.316331E-01 |   0.811453E+03 |   0.256688E+02 |   0.176652E-01 |   0.242658E+03 |   0.100000E-04
   3 |   0.149825E+00 |   0.124547E+01 |   0.186602E+00 |   0.182443E-01 |   0.258829E+03 |   0.100000E-04
   4 |  -0.818175E+00 |  -0.177151E-01 |   0.144941E-01 |   0.846240E-02 |   0.556856E+02 |   0.100000E-04
   5 |   0.103472E+00 |   0.236353E+00 |   0.244560E-01 |   0.942548E-02 |   0.690817E+02 |   0.100000E-04
   6 |  -0.657952E+00 |   0.191914E-01 |  -0.126270E-01 |   0.230701E-02 |   0.413861E+01 |   0.100000E-04
   7 |   0.345612E+00 |   0.110364E-01 |   0.381433E-02 |   0.119134E-02 |   0.110364E+01 |   0.100000E-04
   8 |   0.487920E+00 |   0.925983E-03 |   0.451805E-03 |   0.106626E-02 |   0.884054E+00 |   0.100000E-04
   9 |   0.487277E+00 |   0.262512E-03 |   0.127916E-03 |   0.115294E-02 |   0.103364E+01 |   0.100000E-04
  10 |   0.130565E+01 |   0.917403E-04 |   0.119781E-03 |   0.122490E-02 |   0.116670E+01 |   0.100000E-04
  11 |   0.261501E+01 |   0.115865E-03 |   0.302989E-03 |   0.173062E-02 |   0.232894E+01 |   0.100000E-04
  12 |   0.725163E+00 |   0.150170E-02 |   0.108897E-02 |   0.216580E-02 |   0.364748E+01 |   0.100000E-04
  13 |   0.471174E-01 |   0.527157E-01 |   0.248382E-02 |   0.191746E-02 |   0.285897E+01 |   0.100000E-04
  14 |   0.361250E+00 |   0.243535E-02 |   0.879769E-03 |   0.151515E-02 |   0.178513E+01 |   0.100000E-04
  15 |   0.369260E+00 |   0.873932E-03 |   0.322708E-03 |   0.117736E-02 |   0.107790E+01 |   0.100000E-04
  16 |   0.763612E+00 |   0.141300E-03 |   0.107899E-03 |   0.712612E-03 |   0.394878E+00 |   0.100000E-04
  17 |   0.704306E+00 |   0.113149E-03 |   0.796917E-04 |   0.338014E-03 |   0.888434E-01 |   0.100000E-04
  18 |   0.652754E+00 |   0.450421E-04 |   0.294014E-04 |   0.193214E-03 |   0.290290E-01 |   0.100000E-04
  19 |   0.539857E+00 |   0.714950E-05 |   0.385971E-05 |   0.109909E-03 |   0.939344E-02 |   0.100000E-04
  20 |   0.711705E+00 |   0.943144E-06 |   0.671240E-06 |   0.520801E-04 |   0.210912E-02 |   0.100000E-04
  21 |   0.888137E+00 |   0.194246E-06 |   0.172517E-06 |   0.186683E-04 |   0.270999E-03 |   0.100000E-04
  22 |   0.645975E+00 |   0.696769E-07 |   0.450095E-07 |   0.917596E-05 |   0.654725E-04 |   0.100000E-04
  23 |   0.412430E-01 |   0.872206E-06 |   0.359724E-07 |   0.831681E-05 |   0.537861E-04 |   0.100000E-04
  24 |   0.404371E+00 |   0.224776E-07 |   0.908931E-08 |   0.448990E-05 |   0.156758E-04 |   0.100000E-04
  25 |   0.639280E+00 |   0.229969E-08 |   0.147015E-08 |   0.210837E-05 |   0.345659E-05 |   0.100000E-04

 Charges are converged, EXIT

%%%% DENSITY %%%%%%%%%%%%%%%%%%%%%%%%%%%%%%%%%%%%%%%%%%%%%%%%%%%%%%%%%%%%%%%%%%%

 density label              = velectrostatic                                    

 integral of density        =   -1367.658888    

%%%% CHARGES %%%%%%%%%%%%%%%%%%%%%%%%%%%%%%%%%%%%%%%%%%%%%%%%%%%%%%%%%%%%%%%%%%%

 total number of charges    =            100

 total charge               =      0.0000000

%%%% DENSITY %%%%%%%%%%%%%%%%%%%%%%%%%%%%%%%%%%%%%%%%%%%%%%%%%%%%%%%%%%%%%%%%%%%

 density label              = vsoftcavity                                       

 integral of density        =    5.745453177    

%%%% DENSITY %%%%%%%%%%%%%%%%%%%%%%%%%%%%%%%%%%%%%%%%%%%%%%%%%%%%%%%%%%%%%%%%%%%

 density label              = dvtot                                             

 integral of density        =   -1361.913435    

%%%% ELECTRONS %%%%%%%%%%%%%%%%%%%%%%%%%%%%%%%%%%%%%%%%%%%%%%%%%%%%%%%%%%%%%%%%%

 number of electrons        =             90

 total electronic charge    =     90.0000000

%%%% ELECTRONS %%%%%%%%%%%%%%%%%%%%%%%%%%%%%%%%%%%%%%%%%%%%%%%%%%%%%%%%%%%%%%%%%

 number of electrons        =             90

 total electronic charge    =     90.0000000

%%%% CHARGES %%%%%%%%%%%%%%%%%%%%%%%%%%%%%%%%%%%%%%%%%%%%%%%%%%%%%%%%%%%%%%%%%%%

 total number of charges    =            100

 total charge               =      0.0000000

%%%% CHARGES %%%%%%%%%%%%%%%%%%%%%%%%%%%%%%%%%%%%%%%%%%%%%%%%%%%%%%%%%%%%%%%%%%%

 total number of charges    =            100

 total charge               =      0.0000000

%%%% BOUNDARY %%%%%%%%%%%%%%%%%%%%%%%%%%%%%%%%%%%%%%%%%%%%%%%%%%%%%%%%%%%%%%%%%%

 boundary label             = solvent             
 boundary mode              = full                

 using the optimal SCCS function:
 rhomax                     =      0.0050000
 rhomin                     =      0.0001000

 volume of the QM region    =   1481.8996320

 surface of the QM region   =    261.3397919

%%%% DENSITY %%%%%%%%%%%%%%%%%%%%%%%%%%%%%%%%%%%%%%%%%%%%%%%%%%%%%%%%%%%%%%%%%%%

 density label              = vreference                                        

 integral of density        =  -0.1489752356E-11

%%%% COMPUTE ELECTROSTATIC POTENTIAL %%%%%%%%%%%%%%%%%%%%%%%%%%%%%%%%%%%%%%%%%%%

 Warning: Bad guess with residual norm =   0.428483E+04, reset to no guess

   i |      alpha     |       pAp      |      rzold     |    delta_qm    |    delta_en    |       tol
 ---------------------------------------------------------------------------------------------------------
   1 |   0.999460E+00 |   0.127019E+04 |   0.126951E+04 |   0.741916E-01 |   0.428022E+04 |   0.100000E-04
   2 |   0.318755E-01 |   0.609043E+03 |   0.194136E+02 |   0.175070E-01 |   0.238330E+03 |   0.100000E-04
   3 |   0.146008E+00 |   0.166307E+01 |   0.242821E+00 |   0.159146E-01 |   0.196947E+03 |   0.100000E-04
   4 |  -0.127020E+01 |  -0.113138E-01 |   0.143709E-01 |   0.101649E-01 |   0.803463E+02 |   0.100000E-04
   5 |   0.869830E-01 |   0.464898E+00 |   0.404382E-01 |   0.826114E-02 |   0.530684E+02 |   0.100000E-04
   6 |  -0.562509E+00 |   0.423716E-01 |  -0.238344E-01 |   0.184071E-02 |   0.263467E+01 |   0.100000E-04
   7 |   0.318226E+00 |   0.114411E-01 |   0.364085E-02 |   0.107458E-02 |   0.897904E+00 |   0.100000E-04
   8 |   0.448835E+00 |   0.996904E-03 |   0.447445E-03 |   0.890674E-03 |   0.616870E+00 |   0.100000E-04
   9 |   0.441946E+00 |   0.284019E-03 |   0.125521E-03 |   0.915494E-03 |   0.651729E+00 |   0.100000E-04
  10 |   0.120829E+01 |   0.766967E-04 |   0.926720E-04 |   0.100065E-02 |   0.778604E+00 |   0.100000E-04
  11 |   0.331723E+01 |   0.584186E-04 |   0.193788E-03 |   0.140733E-02 |   0.154009E+01 |   0.100000E-04
  12 |   0.870461E+00 |   0.747737E-03 |   0.650876E-03 |   0.149223E-02 |   0.173152E+01 |   0.100000E-04
  13 |   0.125991E+00 |   0.445424E-02 |   0.561195E-03 |   0.159563E-02 |   0.197981E+01 |   0.100000E-04
  14 |   0.115857E+00 |   0.103520E-01 |   0.119935E-02 |   0.119246E-02 |   0.110571E+01 |   0.100000E-04
  15 |   0.408379E+00 |   0.465195E-03 |   0.189976E-03 |   0.895227E-03 |   0.623193E+00 |   0.100000E-04
  16 |   0.853531E+00 |   0.110605E-03 |   0.944052E-04 |   0.446866E-03 |   0.155278E+00 |   0.100000E-04
  17 |   0.660777E+00 |   0.925335E-04 |   0.611440E-04 |   0.243461E-03 |   0.460908E-01 |   0.100000E-04
  18 |   0.498975E+00 |   0.477992E-04 |   0.238506E-04 |   0.145480E-03 |   0.164575E-01 |   0.100000E-04
  19 |   0.515815E+00 |   0.618162E-05 |   0.318857E-05 |   0.966612E-04 |   0.726542E-02 |   0.100000E-04
  20 |   0.634376E+00 |   0.972117E-06 |   0.616688E-06 |   0.488204E-04 |   0.185335E-02 |   0.100000E-04
  21 |   0.894404E+00 |   0.173278E-06 |   0.154980E-06 |   0.164379E-04 |   0.210110E-03 |   0.100000E-04
  22 |   0.624659E+00 |   0.686867E-07 |   0.429058E-07 |   0.725709E-05 |   0.409526E-04 |   0.100000E-04
  23 |   0.492003E+00 |   0.221991E-07 |   0.109220E-07 |   0.409369E-05 |   0.130313E-04 |   0.100000E-04
  24 |   0.898455E-01 |   0.271308E-07 |   0.243758E-08 |   0.399829E-05 |   0.124309E-04 |   0.100000E-04
  25 |   0.308909E+00 |   0.130907E-07 |   0.404382E-08 |   0.264014E-05 |   0.542013E-05 |   0.100000E-04

 Charges are converged, EXIT

%%%% DENSITY %%%%%%%%%%%%%%%%%%%%%%%%%%%%%%%%%%%%%%%%%%%%%%%%%%%%%%%%%%%%%%%%%%%

 density label              = velectrostatic                                    

 integral of density        =   -1347.472348    

%%%% CHARGES %%%%%%%%%%%%%%%%%%%%%%%%%%%%%%%%%%%%%%%%%%%%%%%%%%%%%%%%%%%%%%%%%%%

 total number of charges    =            100

 total charge               =      0.0000000

%%%% DENSITY %%%%%%%%%%%%%%%%%%%%%%%%%%%%%%%%%%%%%%%%%%%%%%%%%%%%%%%%%%%%%%%%%%%

 density label              = vsoftcavity                                       

 integral of density        =    4.960891378    

%%%% DENSITY %%%%%%%%%%%%%%%%%%%%%%%%%%%%%%%%%%%%%%%%%%%%%%%%%%%%%%%%%%%%%%%%%%%

 density label              = dvtot                                             

 integral of density        =   -1342.511456    

%%%% ELECTRONS %%%%%%%%%%%%%%%%%%%%%%%%%%%%%%%%%%%%%%%%%%%%%%%%%%%%%%%%%%%%%%%%%

 number of electrons        =             90

 total electronic charge    =     90.0000000

%%%% ELECTRONS %%%%%%%%%%%%%%%%%%%%%%%%%%%%%%%%%%%%%%%%%%%%%%%%%%%%%%%%%%%%%%%%%

 number of electrons        =             90

 total electronic charge    =     90.0000000

%%%% CHARGES %%%%%%%%%%%%%%%%%%%%%%%%%%%%%%%%%%%%%%%%%%%%%%%%%%%%%%%%%%%%%%%%%%%

 total number of charges    =            100

 total charge               =      0.0000000

%%%% CHARGES %%%%%%%%%%%%%%%%%%%%%%%%%%%%%%%%%%%%%%%%%%%%%%%%%%%%%%%%%%%%%%%%%%%

 total number of charges    =            100

 total charge               =      0.0000000

%%%% BOUNDARY %%%%%%%%%%%%%%%%%%%%%%%%%%%%%%%%%%%%%%%%%%%%%%%%%%%%%%%%%%%%%%%%%%

 boundary label             = solvent             
 boundary mode              = full                

 using the optimal SCCS function:
 rhomax                     =      0.0050000
 rhomin                     =      0.0001000

 volume of the QM region    =   1481.0291783

 surface of the QM region   =    260.7276590

%%%% DENSITY %%%%%%%%%%%%%%%%%%%%%%%%%%%%%%%%%%%%%%%%%%%%%%%%%%%%%%%%%%%%%%%%%%%

 density label              = vreference                                        

 integral of density        =  -0.1899831890E-13

%%%% COMPUTE ELECTROSTATIC POTENTIAL %%%%%%%%%%%%%%%%%%%%%%%%%%%%%%%%%%%%%%%%%%%

 Warning: Bad guess with residual norm =   0.330967E+04, reset to no guess

   i |      alpha     |       pAp      |      rzold     |    delta_qm    |    delta_en    |       tol
 ---------------------------------------------------------------------------------------------------------
   1 |   0.999505E+00 |   0.127014E+04 |   0.126951E+04 |   0.652080E-01 |   0.330642E+04 |   0.100000E-04
   2 |   0.324568E-01 |   0.531330E+03 |   0.172453E+02 |   0.154037E-01 |   0.184505E+03 |   0.100000E-04
   3 |   0.144774E+00 |   0.184838E+01 |   0.267597E+00 |   0.133704E-01 |   0.139010E+03 |   0.100000E-04
   4 |  -0.336959E+01 |  -0.418104E-02 |   0.140884E-01 |   0.233567E-01 |   0.424208E+03 |   0.100000E-04
   5 |   0.211474E-01 |   0.247860E+01 |   0.524158E-01 |   0.205202E-01 |   0.327430E+03 |   0.100000E-04
   6 |  -0.895519E+00 |   0.551421E-01 |  -0.493808E-01 |   0.152718E-02 |   0.181359E+01 |   0.100000E-04
   7 |   0.313278E+00 |   0.105207E-01 |   0.329589E-02 |   0.959842E-03 |   0.716400E+00 |   0.100000E-04
   8 |   0.460898E+00 |   0.849779E-03 |   0.391662E-03 |   0.817364E-03 |   0.519502E+00 |   0.100000E-04
   9 |   0.490733E+00 |   0.220166E-03 |   0.108043E-03 |   0.839751E-03 |   0.548349E+00 |   0.100000E-04
  10 |   0.109110E+01 |   0.902736E-04 |   0.984979E-04 |   0.895740E-03 |   0.623908E+00 |   0.100000E-04
  11 |   0.286489E+01 |   0.687350E-04 |   0.196918E-03 |   0.124325E-02 |   0.120192E+01 |   0.100000E-04
  12 |   0.740352E+00 |   0.852525E-03 |   0.631169E-03 |   0.119923E-02 |   0.111831E+01 |   0.100000E-04
  13 |   0.143005E+00 |   0.333915E-02 |   0.477515E-03 |   0.131802E-02 |   0.135083E+01 |   0.100000E-04
  14 |   0.126169E+00 |   0.971301E-02 |   0.122548E-02 |   0.101873E-02 |   0.806996E+00 |   0.100000E-04
  15 |   0.525782E+00 |   0.211325E-03 |   0.111111E-03 |   0.739225E-03 |   0.424922E+00 |   0.100000E-04
  16 |   0.528016E+00 |   0.200226E-03 |   0.105723E-03 |   0.396211E-03 |   0.122070E+00 |   0.100000E-04
  17 |   0.692935E+00 |   0.762594E-04 |   0.528428E-04 |   0.191575E-03 |   0.285386E-01 |   0.100000E-04
  18 |   0.546399E+00 |   0.311175E-04 |   0.170025E-04 |   0.967591E-04 |   0.728014E-02 |   0.100000E-04
  19 |   0.509013E+00 |   0.420985E-05 |   0.214287E-05 |   0.628576E-04 |   0.307236E-02 |   0.100000E-04
  20 |   0.597474E+00 |   0.592281E-06 |   0.353872E-06 |   0.356817E-04 |   0.990027E-03 |   0.100000E-04
  21 |   0.860034E+00 |   0.960705E-07 |   0.826238E-07 |   0.114293E-04 |   0.101578E-03 |   0.100000E-04
  22 |   0.674220E+00 |   0.328085E-07 |   0.221201E-07 |   0.489080E-05 |   0.186001E-04 |   0.100000E-04
  23 |   0.447565E+00 |   0.116169E-07 |   0.519930E-08 |   0.279020E-05 |   0.605377E-05 |   0.100000E-04

 Charges are converged, EXIT

%%%% DENSITY %%%%%%%%%%%%%%%%%%%%%%%%%%%%%%%%%%%%%%%%%%%%%%%%%%%%%%%%%%%%%%%%%%%

 density label              = velectrostatic                                    

 integral of density        =   -1355.274799    

%%%% CHARGES %%%%%%%%%%%%%%%%%%%%%%%%%%%%%%%%%%%%%%%%%%%%%%%%%%%%%%%%%%%%%%%%%%%

 total number of charges    =            100

 total charge               =      0.0000000

%%%% DENSITY %%%%%%%%%%%%%%%%%%%%%%%%%%%%%%%%%%%%%%%%%%%%%%%%%%%%%%%%%%%%%%%%%%%

 density label              = vsoftcavity                                       

 integral of density        =    4.482319549    

%%%% DENSITY %%%%%%%%%%%%%%%%%%%%%%%%%%%%%%%%%%%%%%%%%%%%%%%%%%%%%%%%%%%%%%%%%%%

 density label              = dvtot                                             

 integral of density        =   -1350.792479    

%%%% ELECTRONS %%%%%%%%%%%%%%%%%%%%%%%%%%%%%%%%%%%%%%%%%%%%%%%%%%%%%%%%%%%%%%%%%

 number of electrons        =             90

 total electronic charge    =     90.0000000

%%%% ELECTRONS %%%%%%%%%%%%%%%%%%%%%%%%%%%%%%%%%%%%%%%%%%%%%%%%%%%%%%%%%%%%%%%%%

 number of electrons        =             90

 total electronic charge    =     90.0000000

%%%% CHARGES %%%%%%%%%%%%%%%%%%%%%%%%%%%%%%%%%%%%%%%%%%%%%%%%%%%%%%%%%%%%%%%%%%%

 total number of charges    =            100

 total charge               =     -0.0000000

%%%% CHARGES %%%%%%%%%%%%%%%%%%%%%%%%%%%%%%%%%%%%%%%%%%%%%%%%%%%%%%%%%%%%%%%%%%%

 total number of charges    =            100

 total charge               =     -0.0000000

%%%% BOUNDARY %%%%%%%%%%%%%%%%%%%%%%%%%%%%%%%%%%%%%%%%%%%%%%%%%%%%%%%%%%%%%%%%%%

 boundary label             = solvent             
 boundary mode              = full                

 using the optimal SCCS function:
 rhomax                     =      0.0050000
 rhomin                     =      0.0001000

 volume of the QM region    =   1479.1517003

 surface of the QM region   =    259.9868651

%%%% DENSITY %%%%%%%%%%%%%%%%%%%%%%%%%%%%%%%%%%%%%%%%%%%%%%%%%%%%%%%%%%%%%%%%%%%

 density label              = vreference                                        

 integral of density        =   0.7386492661E-12

%%%% COMPUTE ELECTROSTATIC POTENTIAL %%%%%%%%%%%%%%%%%%%%%%%%%%%%%%%%%%%%%%%%%%%

 Warning: Bad guess with residual norm =   0.288570E+04, reset to no guess

   i |      alpha     |       pAp      |      rzold     |    delta_qm    |    delta_en    |       tol
 ---------------------------------------------------------------------------------------------------------
   1 |   0.999486E+00 |   0.127034E+04 |   0.126969E+04 |   0.608872E-01 |   0.288276E+04 |   0.100000E-04
   2 |   0.327728E-01 |   0.538826E+03 |   0.176588E+02 |   0.140194E-01 |   0.152833E+03 |   0.100000E-04
   3 |   0.142928E+00 |   0.205796E+01 |   0.294141E+00 |   0.111630E-01 |   0.968980E+02 |   0.100000E-04
   4 |   0.423465E+01 |   0.296156E-02 |   0.125412E-01 |   0.300553E-01 |   0.702422E+03 |   0.100000E-04
   5 |  -0.502819E-01 |   0.309768E+01 |  -0.155757E+00 |   0.415514E-01 |   0.134254E+04 |   0.100000E-04
   6 |  -0.308524E+00 |  -0.665022E+00 |   0.205175E+00 |   0.133946E-02 |   0.139514E+01 |   0.100000E-04
   7 |   0.317823E+00 |   0.887473E-02 |   0.282059E-02 |   0.895978E-03 |   0.624239E+00 |   0.100000E-04
   8 |   0.432563E+00 |   0.892269E-03 |   0.385963E-03 |   0.792783E-03 |   0.488726E+00 |   0.100000E-04
   9 |   0.508274E+00 |   0.227927E-03 |   0.115849E-03 |   0.797996E-03 |   0.495174E+00 |   0.100000E-04
  10 |   0.113651E+01 |   0.907849E-04 |   0.103178E-03 |   0.854372E-03 |   0.567610E+00 |   0.100000E-04
  11 |   0.223287E+01 |   0.101000E-03 |   0.225521E-03 |   0.108572E-02 |   0.916625E+00 |   0.100000E-04
  12 |   0.676399E+00 |   0.989908E-03 |   0.669573E-03 |   0.929486E-03 |   0.671804E+00 |   0.100000E-04
  13 |   0.806266E-01 |   0.644585E-02 |   0.519707E-03 |   0.104034E-02 |   0.841597E+00 |   0.100000E-04
  14 |   0.252081E+00 |   0.264692E-02 |   0.667239E-03 |   0.827748E-03 |   0.532785E+00 |   0.100000E-04
  15 |   0.800133E+00 |   0.867783E-04 |   0.694342E-04 |   0.496467E-03 |   0.191662E+00 |   0.100000E-04
  16 |   0.651419E+00 |   0.784025E-04 |   0.510729E-04 |   0.264995E-03 |   0.546049E-01 |   0.100000E-04
  17 |   0.378099E+00 |   0.118479E-03 |   0.447970E-04 |   0.155430E-03 |   0.187856E-01 |   0.100000E-04
  18 |   0.512886E+00 |   0.281060E-04 |   0.144152E-04 |   0.755075E-04 |   0.443339E-02 |   0.100000E-04
  19 |   0.515355E+00 |   0.333532E-05 |   0.171887E-05 |   0.463636E-04 |   0.167152E-02 |   0.100000E-04
  20 |   0.579957E+00 |   0.438077E-06 |   0.254066E-06 |   0.274240E-04 |   0.584813E-03 |   0.100000E-04
  21 |   0.787518E+00 |   0.721615E-07 |   0.568285E-07 |   0.975395E-05 |   0.739804E-04 |   0.100000E-04
  22 |   0.578705E+00 |   0.337011E-07 |   0.195030E-07 |   0.413890E-05 |   0.133207E-04 |   0.100000E-04
  23 |   0.464285E+00 |   0.941628E-08 |   0.437184E-08 |   0.202346E-05 |   0.318378E-05 |   0.100000E-04

 Charges are converged, EXIT

%%%% DENSITY %%%%%%%%%%%%%%%%%%%%%%%%%%%%%%%%%%%%%%%%%%%%%%%%%%%%%%%%%%%%%%%%%%%

 density label              = velectrostatic                                    

 integral of density        =   -1355.406263    

%%%% CHARGES %%%%%%%%%%%%%%%%%%%%%%%%%%%%%%%%%%%%%%%%%%%%%%%%%%%%%%%%%%%%%%%%%%%

 total number of charges    =            100

 total charge               =     -0.0000000

%%%% DENSITY %%%%%%%%%%%%%%%%%%%%%%%%%%%%%%%%%%%%%%%%%%%%%%%%%%%%%%%%%%%%%%%%%%%

 density label              = vsoftcavity                                       

 integral of density        =    4.291362669    

%%%% DENSITY %%%%%%%%%%%%%%%%%%%%%%%%%%%%%%%%%%%%%%%%%%%%%%%%%%%%%%%%%%%%%%%%%%%

 density label              = dvtot                                             

 integral of density        =   -1351.114900    

%%%% ELECTRONS %%%%%%%%%%%%%%%%%%%%%%%%%%%%%%%%%%%%%%%%%%%%%%%%%%%%%%%%%%%%%%%%%

 number of electrons        =             90

 total electronic charge    =     90.0000000

%%%% ELECTRONS %%%%%%%%%%%%%%%%%%%%%%%%%%%%%%%%%%%%%%%%%%%%%%%%%%%%%%%%%%%%%%%%%

 number of electrons        =             90

 total electronic charge    =     90.0000000

%%%% CHARGES %%%%%%%%%%%%%%%%%%%%%%%%%%%%%%%%%%%%%%%%%%%%%%%%%%%%%%%%%%%%%%%%%%%

 total number of charges    =            100

 total charge               =     -0.0000000

%%%% CHARGES %%%%%%%%%%%%%%%%%%%%%%%%%%%%%%%%%%%%%%%%%%%%%%%%%%%%%%%%%%%%%%%%%%%

 total number of charges    =            100

 total charge               =     -0.0000000

%%%% BOUNDARY %%%%%%%%%%%%%%%%%%%%%%%%%%%%%%%%%%%%%%%%%%%%%%%%%%%%%%%%%%%%%%%%%%

 boundary label             = solvent             
 boundary mode              = full                

 using the optimal SCCS function:
 rhomax                     =      0.0050000
 rhomin                     =      0.0001000

 volume of the QM region    =   1478.1159234

 surface of the QM region   =    259.7789794

%%%% DENSITY %%%%%%%%%%%%%%%%%%%%%%%%%%%%%%%%%%%%%%%%%%%%%%%%%%%%%%%%%%%%%%%%%%%

 density label              = vreference                                        

 integral of density        =   0.2864217301E-11

%%%% COMPUTE ELECTROSTATIC POTENTIAL %%%%%%%%%%%%%%%%%%%%%%%%%%%%%%%%%%%%%%%%%%%

 Warning: Bad guess with residual norm =   0.243015E+04, reset to no guess

   i |      alpha     |       pAp      |      rzold     |    delta_qm    |    delta_en    |       tol
 ---------------------------------------------------------------------------------------------------------
   1 |   0.999519E+00 |   0.127053E+04 |   0.126992E+04 |   0.558767E-01 |   0.242783E+04 |   0.100000E-04
   2 |   0.330228E-01 |   0.490250E+03 |   0.161894E+02 |   0.134322E-01 |   0.140297E+03 |   0.100000E-04
   3 |   0.141482E+00 |   0.224323E+01 |   0.317376E+00 |   0.101496E-01 |   0.801032E+02 |   0.100000E-04
   4 |   0.191494E+01 |   0.631007E-02 |   0.120834E-01 |   0.142288E-01 |   0.157433E+03 |   0.100000E-04
   5 |  -0.844821E-01 |   0.628434E+00 |  -0.530914E-01 |   0.218997E-01 |   0.372935E+03 |   0.100000E-04
   6 |  -0.404724E+00 |  -0.183722E+00 |   0.743568E-01 |   0.130844E-02 |   0.133126E+01 |   0.100000E-04
   7 |   0.321601E+00 |   0.893280E-02 |   0.287279E-02 |   0.844720E-03 |   0.554859E+00 |   0.100000E-04
   8 |   0.422762E+00 |   0.895902E-03 |   0.378753E-03 |   0.746754E-03 |   0.433622E+00 |   0.100000E-04
   9 |   0.501418E+00 |   0.231404E-03 |   0.116030E-03 |   0.745286E-03 |   0.431919E+00 |   0.100000E-04
  10 |   0.111821E+01 |   0.862748E-04 |   0.964733E-04 |   0.795277E-03 |   0.491806E+00 |   0.100000E-04
  11 |   0.202071E+01 |   0.104446E-03 |   0.211055E-03 |   0.989035E-03 |   0.760641E+00 |   0.100000E-04
  12 |   0.693764E+00 |   0.895574E-03 |   0.621317E-03 |   0.866735E-03 |   0.584156E+00 |   0.100000E-04
  13 |   0.502210E+00 |   0.612837E-03 |   0.307773E-03 |   0.916051E-03 |   0.652523E+00 |   0.100000E-04
  14 |   0.432397E-01 |   0.218863E-01 |   0.946356E-03 |   0.770779E-03 |   0.461972E+00 |   0.100000E-04
  15 |   0.787442E+00 |   0.874135E-04 |   0.688331E-04 |   0.470191E-03 |   0.171912E+00 |   0.100000E-04
  16 |   0.890196E+00 |   0.494869E-04 |   0.440531E-04 |   0.201041E-03 |   0.314285E-01 |   0.100000E-04
  17 |   0.638604E+00 |   0.332134E-04 |   0.212102E-04 |   0.952312E-04 |   0.705204E-02 |   0.100000E-04
  18 |   0.299827E+00 |   0.221484E-04 |   0.664069E-05 |   0.630475E-04 |   0.309095E-02 |   0.100000E-04
  19 |   0.390766E+00 |   0.440314E-05 |   0.172060E-05 |   0.402286E-04 |   0.125842E-02 |   0.100000E-04
  20 |   0.549269E+00 |   0.422803E-06 |   0.232233E-06 |   0.245234E-04 |   0.467647E-03 |   0.100000E-04
  21 |   0.751312E+00 |   0.679553E-07 |   0.510556E-07 |   0.919414E-05 |   0.657322E-04 |   0.100000E-04
  22 |   0.589432E+00 |   0.303963E-07 |   0.179166E-07 |   0.362249E-05 |   0.102040E-04 |   0.100000E-04
  23 |   0.591741E+00 |   0.625960E-08 |   0.370406E-08 |   0.132488E-05 |   0.136492E-05 |   0.100000E-04

 Charges are converged, EXIT

%%%% DENSITY %%%%%%%%%%%%%%%%%%%%%%%%%%%%%%%%%%%%%%%%%%%%%%%%%%%%%%%%%%%%%%%%%%%

 density label              = velectrostatic                                    

 integral of density        =   -1355.478516    

%%%% CHARGES %%%%%%%%%%%%%%%%%%%%%%%%%%%%%%%%%%%%%%%%%%%%%%%%%%%%%%%%%%%%%%%%%%%

 total number of charges    =            100

 total charge               =     -0.0000000

%%%% DENSITY %%%%%%%%%%%%%%%%%%%%%%%%%%%%%%%%%%%%%%%%%%%%%%%%%%%%%%%%%%%%%%%%%%%

 density label              = vsoftcavity                                       

 integral of density        =    4.228658821    

%%%% DENSITY %%%%%%%%%%%%%%%%%%%%%%%%%%%%%%%%%%%%%%%%%%%%%%%%%%%%%%%%%%%%%%%%%%%

 density label              = dvtot                                             

 integral of density        =   -1351.249857    

%%%% ELECTRONS %%%%%%%%%%%%%%%%%%%%%%%%%%%%%%%%%%%%%%%%%%%%%%%%%%%%%%%%%%%%%%%%%

 number of electrons        =             90

 total electronic charge    =     90.0000000

%%%% ELECTRONS %%%%%%%%%%%%%%%%%%%%%%%%%%%%%%%%%%%%%%%%%%%%%%%%%%%%%%%%%%%%%%%%%

 number of electrons        =             90

 total electronic charge    =     90.0000000

%%%% CHARGES %%%%%%%%%%%%%%%%%%%%%%%%%%%%%%%%%%%%%%%%%%%%%%%%%%%%%%%%%%%%%%%%%%%

 total number of charges    =            100

 total charge               =     -0.0000000

%%%% CHARGES %%%%%%%%%%%%%%%%%%%%%%%%%%%%%%%%%%%%%%%%%%%%%%%%%%%%%%%%%%%%%%%%%%%

 total number of charges    =            100

 total charge               =     -0.0000000

%%%% BOUNDARY %%%%%%%%%%%%%%%%%%%%%%%%%%%%%%%%%%%%%%%%%%%%%%%%%%%%%%%%%%%%%%%%%%

 boundary label             = solvent             
 boundary mode              = full                

 using the optimal SCCS function:
 rhomax                     =      0.0050000
 rhomin                     =      0.0001000

 volume of the QM region    =   1475.5805222

 surface of the QM region   =    260.4191094

%%%% DENSITY %%%%%%%%%%%%%%%%%%%%%%%%%%%%%%%%%%%%%%%%%%%%%%%%%%%%%%%%%%%%%%%%%%%

 density label              = vreference                                        

 integral of density        =   0.1647598985E-11

%%%% COMPUTE ELECTROSTATIC POTENTIAL %%%%%%%%%%%%%%%%%%%%%%%%%%%%%%%%%%%%%%%%%%%

 Warning: Bad guess with residual norm =   0.214269E+04, reset to no guess

   i |      alpha     |       pAp      |      rzold     |    delta_qm    |    delta_en    |       tol
 ---------------------------------------------------------------------------------------------------------
   1 |   0.999565E+00 |   0.127072E+04 |   0.127017E+04 |   0.524704E-01 |   0.214084E+04 |   0.100000E-04
   2 |   0.331510E-01 |   0.430068E+03 |   0.142572E+02 |   0.134437E-01 |   0.140538E+03 |   0.100000E-04
   3 |   0.138748E+00 |   0.258250E+01 |   0.358317E+00 |   0.970732E-02 |   0.732748E+02 |   0.100000E-04
   4 |   0.132550E+01 |   0.893795E-02 |   0.118472E-01 |   0.109766E-01 |   0.936902E+02 |   0.100000E-04
   5 |  -0.806509E-01 |   0.325713E+00 |  -0.262691E-01 |   0.157367E-01 |   0.192567E+03 |   0.100000E-04
   6 |  -0.616124E+00 |  -0.533406E-01 |   0.328644E-01 |   0.137223E-02 |   0.146423E+01 |   0.100000E-04
   7 |   0.319230E+00 |   0.102150E-01 |   0.326093E-02 |   0.826205E-03 |   0.530802E+00 |   0.100000E-04
   8 |   0.416616E+00 |   0.940452E-03 |   0.391808E-03 |   0.716782E-03 |   0.399513E+00 |   0.100000E-04
   9 |   0.475790E+00 |   0.244136E-03 |   0.116158E-03 |   0.707251E-03 |   0.388958E+00 |   0.100000E-04
  10 |   0.107164E+01 |   0.803342E-04 |   0.860896E-04 |   0.746280E-03 |   0.433072E+00 |   0.100000E-04
  11 |   0.192571E+01 |   0.932577E-04 |   0.179587E-03 |   0.936322E-03 |   0.681721E+00 |   0.100000E-04
  12 |   0.716325E+00 |   0.775853E-03 |   0.555763E-03 |   0.835160E-03 |   0.542369E+00 |   0.100000E-04
  13 |   0.855031E-01 |   0.552278E-02 |   0.472215E-03 |   0.967052E-03 |   0.727203E+00 |   0.100000E-04
  14 |   0.261535E+00 |   0.256583E-02 |   0.671055E-03 |   0.826947E-03 |   0.531755E+00 |   0.100000E-04
  15 |   0.881907E+00 |   0.844620E-04 |   0.744876E-04 |   0.503713E-03 |   0.197298E+00 |   0.100000E-04
  16 |   0.888478E+00 |   0.619727E-04 |   0.550614E-04 |   0.215742E-03 |   0.361932E-01 |   0.100000E-04
  17 |   0.575765E+00 |   0.482285E-04 |   0.277683E-04 |   0.111494E-03 |   0.966635E-02 |   0.100000E-04
  18 |   0.280338E+00 |   0.408399E-04 |   0.114490E-04 |   0.720233E-04 |   0.403369E-02 |   0.100000E-04
  19 |   0.446989E+00 |   0.464188E-05 |   0.207487E-05 |   0.429905E-04 |   0.143715E-02 |   0.100000E-04
  20 |   0.551372E+00 |   0.513870E-06 |   0.283333E-06 |   0.260814E-04 |   0.528953E-03 |   0.100000E-04
  21 |   0.747172E+00 |   0.852844E-07 |   0.637221E-07 |   0.970116E-05 |   0.731820E-04 |   0.100000E-04
  22 |   0.593976E+00 |   0.368155E-07 |   0.218675E-07 |   0.395678E-05 |   0.121742E-04 |   0.100000E-04
  23 |   0.178844E+00 |   0.292578E-07 |   0.523260E-08 |   0.282580E-05 |   0.620924E-05 |   0.100000E-04

 Charges are converged, EXIT

%%%% DENSITY %%%%%%%%%%%%%%%%%%%%%%%%%%%%%%%%%%%%%%%%%%%%%%%%%%%%%%%%%%%%%%%%%%%

 density label              = velectrostatic                                    

 integral of density        =   -1350.877668    

%%%% CHARGES %%%%%%%%%%%%%%%%%%%%%%%%%%%%%%%%%%%%%%%%%%%%%%%%%%%%%%%%%%%%%%%%%%%

 total number of charges    =            100

 total charge               =     -0.0000000

%%%% DENSITY %%%%%%%%%%%%%%%%%%%%%%%%%%%%%%%%%%%%%%%%%%%%%%%%%%%%%%%%%%%%%%%%%%%

 density label              = vsoftcavity                                       

 integral of density        =    4.361355066    

%%%% DENSITY %%%%%%%%%%%%%%%%%%%%%%%%%%%%%%%%%%%%%%%%%%%%%%%%%%%%%%%%%%%%%%%%%%%

 density label              = dvtot                                             

 integral of density        =   -1346.516313    

%%%% ELECTRONS %%%%%%%%%%%%%%%%%%%%%%%%%%%%%%%%%%%%%%%%%%%%%%%%%%%%%%%%%%%%%%%%%

 number of electrons        =             90

 total electronic charge    =     90.0000000

%%%% ELECTRONS %%%%%%%%%%%%%%%%%%%%%%%%%%%%%%%%%%%%%%%%%%%%%%%%%%%%%%%%%%%%%%%%%

 number of electrons        =             90

 total electronic charge    =     90.0000000

%%%% CHARGES %%%%%%%%%%%%%%%%%%%%%%%%%%%%%%%%%%%%%%%%%%%%%%%%%%%%%%%%%%%%%%%%%%%

 total number of charges    =            100

 total charge               =     -0.0000000

%%%% CHARGES %%%%%%%%%%%%%%%%%%%%%%%%%%%%%%%%%%%%%%%%%%%%%%%%%%%%%%%%%%%%%%%%%%%

 total number of charges    =            100

 total charge               =     -0.0000000

%%%% BOUNDARY %%%%%%%%%%%%%%%%%%%%%%%%%%%%%%%%%%%%%%%%%%%%%%%%%%%%%%%%%%%%%%%%%%

 boundary label             = solvent             
 boundary mode              = full                

 using the optimal SCCS function:
 rhomax                     =      0.0050000
 rhomin                     =      0.0001000

 volume of the QM region    =   1476.3366941

 surface of the QM region   =    260.3536759

%%%% DENSITY %%%%%%%%%%%%%%%%%%%%%%%%%%%%%%%%%%%%%%%%%%%%%%%%%%%%%%%%%%%%%%%%%%%

 density label              = vreference                                        

 integral of density        =  -0.1025318825E-11

%%%% COMPUTE ELECTROSTATIC POTENTIAL %%%%%%%%%%%%%%%%%%%%%%%%%%%%%%%%%%%%%%%%%%%

 Warning: Bad guess with residual norm =   0.205309E+04, reset to no guess

   i |      alpha     |       pAp      |      rzold     |    delta_qm    |    delta_en    |       tol
 ---------------------------------------------------------------------------------------------------------
   1 |   0.999583E+00 |   0.127089E+04 |   0.127036E+04 |   0.513625E-01 |   0.205139E+04 |   0.100000E-04
   2 |   0.332433E-01 |   0.408819E+03 |   0.135905E+02 |   0.134523E-01 |   0.140717E+03 |   0.100000E-04
   3 |   0.138800E+00 |   0.255948E+01 |   0.355255E+00 |   0.987222E-02 |   0.757854E+02 |   0.100000E-04
   4 |   0.155618E+01 |   0.772789E-02 |   0.120260E-01 |   0.120978E-01 |   0.113807E+03 |   0.100000E-04
   5 |  -0.841923E-01 |   0.434515E+00 |  -0.365828E-01 |   0.180367E-01 |   0.252972E+03 |   0.100000E-04
   6 |  -0.500848E+00 |  -0.967951E-01 |   0.484797E-01 |   0.134313E-02 |   0.140279E+01 |   0.100000E-04
   7 |   0.322015E+00 |   0.971671E-02 |   0.312893E-02 |   0.812100E-03 |   0.512832E+00 |   0.100000E-04
   8 |   0.415365E+00 |   0.911550E-03 |   0.378626E-03 |   0.702808E-03 |   0.384087E+00 |   0.100000E-04
   9 |   0.467873E+00 |   0.244480E-03 |   0.114386E-03 |   0.691373E-03 |   0.371690E+00 |   0.100000E-04
  10 |   0.110506E+01 |   0.735153E-04 |   0.812390E-04 |   0.728700E-03 |   0.412909E+00 |   0.100000E-04
  11 |   0.190625E+01 |   0.907920E-04 |   0.173072E-03 |   0.909493E-03 |   0.643213E+00 |   0.100000E-04
  12 |   0.713806E+00 |   0.742621E-03 |   0.530088E-03 |   0.822394E-03 |   0.525916E+00 |   0.100000E-04
  13 |   0.162436E+00 |   0.209316E-02 |   0.340004E-03 |   0.974944E-03 |   0.739122E+00 |   0.100000E-04
  14 |   0.136737E+00 |   0.761362E-02 |   0.104107E-02 |   0.789411E-03 |   0.484577E+00 |   0.100000E-04
  15 |   0.798739E+00 |   0.876150E-04 |   0.699816E-04 |   0.502894E-03 |   0.196657E+00 |   0.100000E-04
  16 |   0.503752E+00 |   0.129894E-03 |   0.654344E-04 |   0.296721E-03 |   0.684625E-01 |   0.100000E-04
  17 |   0.481684E+00 |   0.108967E-03 |   0.524875E-04 |   0.150918E-03 |   0.177108E-01 |   0.100000E-04
  18 |   0.553539E+00 |   0.261827E-04 |   0.144932E-04 |   0.704107E-04 |   0.385508E-02 |   0.100000E-04
  19 |   0.517634E+00 |   0.346992E-05 |   0.179615E-05 |   0.407364E-04 |   0.129039E-02 |   0.100000E-04
  20 |   0.556628E+00 |   0.460901E-06 |   0.256551E-06 |   0.247705E-04 |   0.477116E-03 |   0.100000E-04
  21 |   0.758497E+00 |   0.750757E-07 |   0.569447E-07 |   0.904242E-05 |   0.635807E-04 |   0.100000E-04
  22 |   0.595769E+00 |   0.324072E-07 |   0.193072E-07 |   0.368531E-05 |   0.105610E-04 |   0.100000E-04
  23 |   0.338697E+00 |   0.124908E-07 |   0.423059E-08 |   0.216832E-05 |   0.365596E-05 |   0.100000E-04

 Charges are converged, EXIT

%%%% DENSITY %%%%%%%%%%%%%%%%%%%%%%%%%%%%%%%%%%%%%%%%%%%%%%%%%%%%%%%%%%%%%%%%%%%

 density label              = velectrostatic                                    

 integral of density        =   -1354.708463    

%%%% CHARGES %%%%%%%%%%%%%%%%%%%%%%%%%%%%%%%%%%%%%%%%%%%%%%%%%%%%%%%%%%%%%%%%%%%

 total number of charges    =            100

 total charge               =     -0.0000000

%%%% DENSITY %%%%%%%%%%%%%%%%%%%%%%%%%%%%%%%%%%%%%%%%%%%%%%%%%%%%%%%%%%%%%%%%%%%

[...]
   5 |  -0.794686E-01 |   0.443924E+00 |  -0.352780E-01 |   0.177341E-01 |   0.244555E+03 |   0.100000E-04
   6 |  -0.530997E+00 |  -0.858696E-01 |   0.455965E-01 |   0.135933E-02 |   0.143684E+01 |   0.100000E-04
   7 |   0.322961E+00 |   0.997245E-02 |   0.322071E-02 |   0.796964E-03 |   0.493893E+00 |   0.100000E-04
   8 |   0.410937E+00 |   0.921962E-03 |   0.378868E-03 |   0.676797E-03 |   0.356183E+00 |   0.100000E-04
   9 |   0.455248E+00 |   0.245076E-03 |   0.111570E-03 |   0.661493E-03 |   0.340257E+00 |   0.100000E-04
  10 |   0.107478E+01 |   0.687110E-04 |   0.738490E-04 |   0.693583E-03 |   0.374070E+00 |   0.100000E-04
  11 |   0.191065E+01 |   0.795210E-04 |   0.151936E-03 |   0.875034E-03 |   0.595396E+00 |   0.100000E-04
  12 |   0.735837E+00 |   0.657051E-03 |   0.483482E-03 |   0.821633E-03 |   0.524942E+00 |   0.100000E-04
  13 |   0.157859E+00 |   0.217858E-02 |   0.343908E-03 |   0.986390E-03 |   0.756578E+00 |   0.100000E-04
  14 |   0.143053E+00 |   0.720822E-02 |   0.103116E-02 |   0.819129E-03 |   0.521748E+00 |   0.100000E-04
  15 |   0.662877E+00 |   0.123192E-03 |   0.816612E-04 |   0.583342E-03 |   0.264608E+00 |   0.100000E-04
  16 |   0.471140E+00 |   0.187567E-03 |   0.883703E-04 |   0.344621E-03 |   0.923506E-01 |   0.100000E-04
  17 |   0.624929E+00 |   0.865070E-04 |   0.540608E-04 |   0.161593E-03 |   0.203049E-01 |   0.100000E-04
  18 |   0.570783E+00 |   0.287469E-04 |   0.164082E-04 |   0.753918E-04 |   0.441982E-02 |   0.100000E-04
  19 |   0.521780E+00 |   0.391134E-05 |   0.204086E-05 |   0.430781E-04 |   0.144301E-02 |   0.100000E-04
  20 |   0.557324E+00 |   0.521615E-06 |   0.290709E-06 |   0.261483E-04 |   0.531671E-03 |   0.100000E-04
  21 |   0.750342E+00 |   0.887001E-07 |   0.665554E-07 |   0.959331E-05 |   0.715638E-04 |   0.100000E-04
  22 |   0.595344E+00 |   0.380079E-07 |   0.226278E-07 |   0.390757E-05 |   0.118732E-04 |   0.100000E-04
  23 |   0.395006E+00 |   0.122060E-07 |   0.482142E-08 |   0.213825E-05 |   0.355527E-05 |   0.100000E-04

 Charges are converged, EXIT

%%%% DENSITY %%%%%%%%%%%%%%%%%%%%%%%%%%%%%%%%%%%%%%%%%%%%%%%%%%%%%%%%%%%%%%%%%%%

 density label              = velectrostatic                                    

 integral of density        =   -1353.966619    

%%%% CHARGES %%%%%%%%%%%%%%%%%%%%%%%%%%%%%%%%%%%%%%%%%%%%%%%%%%%%%%%%%%%%%%%%%%%

 total number of charges    =            100

 total charge               =     -0.0000000

%%%% DENSITY %%%%%%%%%%%%%%%%%%%%%%%%%%%%%%%%%%%%%%%%%%%%%%%%%%%%%%%%%%%%%%%%%%%

 density label              = vsoftcavity                                       

 integral of density        =    4.234910037    

%%%% DENSITY %%%%%%%%%%%%%%%%%%%%%%%%%%%%%%%%%%%%%%%%%%%%%%%%%%%%%%%%%%%%%%%%%%%

 density label              = dvtot                                             

 integral of density        =   -1349.731709    

%%%% ELECTRONS %%%%%%%%%%%%%%%%%%%%%%%%%%%%%%%%%%%%%%%%%%%%%%%%%%%%%%%%%%%%%%%%%

 number of electrons        =             90

 total electronic charge    =     90.0000000

%%%% ELECTRONS %%%%%%%%%%%%%%%%%%%%%%%%%%%%%%%%%%%%%%%%%%%%%%%%%%%%%%%%%%%%%%%%%

 number of electrons        =             90

 total electronic charge    =     90.0000000

%%%% CHARGES %%%%%%%%%%%%%%%%%%%%%%%%%%%%%%%%%%%%%%%%%%%%%%%%%%%%%%%%%%%%%%%%%%%

 total number of charges    =            100

 total charge               =     -0.0000000

%%%% CHARGES %%%%%%%%%%%%%%%%%%%%%%%%%%%%%%%%%%%%%%%%%%%%%%%%%%%%%%%%%%%%%%%%%%%

 total number of charges    =            100

 total charge               =     -0.0000000

%%%% BOUNDARY %%%%%%%%%%%%%%%%%%%%%%%%%%%%%%%%%%%%%%%%%%%%%%%%%%%%%%%%%%%%%%%%%%

 boundary label             = solvent             
 boundary mode              = full                

 using the optimal SCCS function:
 rhomax                     =      0.0050000
 rhomin                     =      0.0001000

 volume of the QM region    =   1475.0023341

 surface of the QM region   =    260.8941310

%%%% DENSITY %%%%%%%%%%%%%%%%%%%%%%%%%%%%%%%%%%%%%%%%%%%%%%%%%%%%%%%%%%%%%%%%%%%

 density label              = vreference                                        

 integral of density        =   0.4308532184E-11

%%%% COMPUTE ELECTROSTATIC POTENTIAL %%%%%%%%%%%%%%%%%%%%%%%%%%%%%%%%%%%%%%%%%%%

 Warning: Bad guess with residual norm =   0.188492E+04, reset to no guess

   i |      alpha     |       pAp      |      rzold     |    delta_qm    |    delta_en    |       tol
 ---------------------------------------------------------------------------------------------------------
   1 |   0.999615E+00 |   0.127080E+04 |   0.127031E+04 |   0.492155E-01 |   0.188348E+04 |   0.100000E-04
   2 |   0.333417E-01 |   0.369368E+03 |   0.123153E+02 |   0.135076E-01 |   0.141877E+03 |   0.100000E-04
   3 |   0.137545E+00 |   0.266228E+01 |   0.366184E+00 |   0.991334E-02 |   0.764182E+02 |   0.100000E-04
   4 |   0.154963E+01 |   0.793324E-02 |   0.122936E-01 |   0.122319E-01 |   0.116344E+03 |   0.100000E-04
   5 |  -0.792498E-01 |   0.450237E+00 |  -0.356812E-01 |   0.178310E-01 |   0.247233E+03 |   0.100000E-04
   6 |  -0.528529E+00 |  -0.873021E-01 |   0.461417E-01 |   0.135843E-02 |   0.143492E+01 |   0.100000E-04
   7 |   0.323018E+00 |   0.995680E-02 |   0.321623E-02 |   0.796913E-03 |   0.493831E+00 |   0.100000E-04
   8 |   0.411200E+00 |   0.920246E-03 |   0.378406E-03 |   0.676810E-03 |   0.356196E+00 |   0.100000E-04
   9 |   0.455666E+00 |   0.244475E-03 |   0.111399E-03 |   0.661532E-03 |   0.340297E+00 |   0.100000E-04
  10 |   0.107441E+01 |   0.687796E-04 |   0.738974E-04 |   0.693684E-03 |   0.374179E+00 |   0.100000E-04
  11 |   0.191086E+01 |   0.795641E-04 |   0.152036E-03 |   0.871010E-03 |   0.589932E+00 |   0.100000E-04
  12 |   0.739714E+00 |   0.652585E-03 |   0.482726E-03 |   0.867610E-03 |   0.585336E+00 |   0.100000E-04
  13 |   0.338320E+00 |   0.886030E-03 |   0.299762E-03 |   0.792916E-03 |   0.488890E+00 |   0.100000E-04
  14 |   0.677405E-01 |   0.216490E-01 |   0.146651E-02 |   0.821178E-03 |   0.524362E+00 |   0.100000E-04
  15 |   0.857200E+00 |   0.875044E-04 |   0.750088E-04 |   0.512404E-03 |   0.204165E+00 |   0.100000E-04
  16 |   0.615092E+00 |   0.105188E-03 |   0.647003E-04 |   0.281639E-03 |   0.616795E-01 |   0.100000E-04
  17 |   0.394675E+00 |   0.151555E-03 |   0.598149E-04 |   0.158026E-03 |   0.194183E-01 |   0.100000E-04
  18 |   0.525119E+00 |   0.323618E-04 |   0.169938E-04 |   0.751272E-04 |   0.438885E-02 |   0.100000E-04
  19 |   0.520347E+00 |   0.390648E-05 |   0.203273E-05 |   0.429818E-04 |   0.143657E-02 |   0.100000E-04
  20 |   0.557443E+00 |   0.518687E-06 |   0.289138E-06 |   0.260883E-04 |   0.529234E-03 |   0.100000E-04
  21 |   0.750615E+00 |   0.882348E-07 |   0.662304E-07 |   0.956472E-05 |   0.711379E-04 |   0.100000E-04
  22 |   0.595228E+00 |   0.378159E-07 |   0.225091E-07 |   0.386831E-05 |   0.116359E-04 |   0.100000E-04
  23 |   0.522670E+00 |   0.898150E-08 |   0.469436E-08 |   0.167260E-05 |   0.217541E-05 |   0.100000E-04

 Charges are converged, EXIT

%%%% DENSITY %%%%%%%%%%%%%%%%%%%%%%%%%%%%%%%%%%%%%%%%%%%%%%%%%%%%%%%%%%%%%%%%%%%

 density label              = velectrostatic                                    

 integral of density        =   -1353.840817    

%%%% CHARGES %%%%%%%%%%%%%%%%%%%%%%%%%%%%%%%%%%%%%%%%%%%%%%%%%%%%%%%%%%%%%%%%%%%

 total number of charges    =            100

 total charge               =     -0.0000000

%%%% DENSITY %%%%%%%%%%%%%%%%%%%%%%%%%%%%%%%%%%%%%%%%%%%%%%%%%%%%%%%%%%%%%%%%%%%

 density label              = vsoftcavity                                       

 integral of density        =    4.229461110    

%%%% DENSITY %%%%%%%%%%%%%%%%%%%%%%%%%%%%%%%%%%%%%%%%%%%%%%%%%%%%%%%%%%%%%%%%%%%

 density label              = dvtot                                             

 integral of density        =   -1349.611356    

%%%% ELECTRONS %%%%%%%%%%%%%%%%%%%%%%%%%%%%%%%%%%%%%%%%%%%%%%%%%%%%%%%%%%%%%%%%%

 number of electrons        =             90

 total electronic charge    =     90.0000000

%%%% ELECTRONS %%%%%%%%%%%%%%%%%%%%%%%%%%%%%%%%%%%%%%%%%%%%%%%%%%%%%%%%%%%%%%%%%

 number of electrons        =             90

 total electronic charge    =     90.0000000

%%%% CHARGES %%%%%%%%%%%%%%%%%%%%%%%%%%%%%%%%%%%%%%%%%%%%%%%%%%%%%%%%%%%%%%%%%%%

 total number of charges    =            100

 total charge               =     -0.0000000

%%%% CHARGES %%%%%%%%%%%%%%%%%%%%%%%%%%%%%%%%%%%%%%%%%%%%%%%%%%%%%%%%%%%%%%%%%%%

 total number of charges    =            100

 total charge               =     -0.0000000

%%%% BOUNDARY %%%%%%%%%%%%%%%%%%%%%%%%%%%%%%%%%%%%%%%%%%%%%%%%%%%%%%%%%%%%%%%%%%

 boundary label             = solvent             
 boundary mode              = full                

 using the optimal SCCS function:
 rhomax                     =      0.0050000
 rhomin                     =      0.0001000

 volume of the QM region    =   1474.9849190

 surface of the QM region   =    260.9070346

%%%% DENSITY %%%%%%%%%%%%%%%%%%%%%%%%%%%%%%%%%%%%%%%%%%%%%%%%%%%%%%%%%%%%%%%%%%%

 density label              = vreference                                        

 integral of density        =  -0.2903807529E-11

%%%% COMPUTE ELECTROSTATIC POTENTIAL %%%%%%%%%%%%%%%%%%%%%%%%%%%%%%%%%%%%%%%%%%%

 Warning: Bad guess with residual norm =   0.187789E+04, reset to no guess

   i |      alpha     |       pAp      |      rzold     |    delta_qm    |    delta_en    |       tol
 ---------------------------------------------------------------------------------------------------------
   1 |   0.999616E+00 |   0.127080E+04 |   0.127031E+04 |   0.491237E-01 |   0.187646E+04 |   0.100000E-04
   2 |   0.333492E-01 |   0.367621E+03 |   0.122599E+02 |   0.135122E-01 |   0.141974E+03 |   0.100000E-04
   3 |   0.137502E+00 |   0.266786E+01 |   0.366835E+00 |   0.991624E-02 |   0.764629E+02 |   0.100000E-04
   4 |   0.154832E+01 |   0.794913E-02 |   0.123078E-01 |   0.122361E-01 |   0.116425E+03 |   0.100000E-04
   5 |  -0.789795E-01 |   0.450398E+00 |  -0.355723E-01 |   0.178115E-01 |   0.246695E+03 |   0.100000E-04
   6 |  -0.530770E+00 |  -0.865242E-01 |   0.459245E-01 |   0.135937E-02 |   0.143692E+01 |   0.100000E-04
   7 |   0.322984E+00 |   0.997730E-02 |   0.322251E-02 |   0.796384E-03 |   0.493176E+00 |   0.100000E-04
   8 |   0.411058E+00 |   0.921084E-03 |   0.378619E-03 |   0.675806E-03 |   0.355140E+00 |   0.100000E-04
   9 |   0.455109E+00 |   0.244531E-03 |   0.111288E-03 |   0.660315E-03 |   0.339046E+00 |   0.100000E-04
  10 |   0.107261E+01 |   0.686138E-04 |   0.735960E-04 |   0.692076E-03 |   0.372446E+00 |   0.100000E-04
  11 |   0.191048E+01 |   0.790722E-04 |   0.151065E-03 |   0.869823E-03 |   0.588326E+00 |   0.100000E-04
  12 |   0.741506E+00 |   0.647243E-03 |   0.479935E-03 |   0.853431E-03 |   0.566361E+00 |   0.100000E-04
  13 |   0.640050E+00 |   0.444815E-03 |   0.284704E-03 |   0.807452E-03 |   0.506979E+00 |   0.100000E-04
  14 |   0.415680E-01 |   0.104660E-01 |   0.435052E-03 |   0.825383E-03 |   0.529746E+00 |   0.100000E-04
  15 |   0.743912E+00 |   0.116077E-03 |   0.863511E-04 |   0.510608E-03 |   0.202737E+00 |   0.100000E-04
  16 |   0.633843E+00 |   0.100704E-03 |   0.638307E-04 |   0.276444E-03 |   0.594254E-01 |   0.100000E-04
  17 |   0.385472E+00 |   0.153312E-03 |   0.590973E-04 |   0.157514E-03 |   0.192927E-01 |   0.100000E-04
  18 |   0.518401E+00 |   0.329987E-04 |   0.171065E-04 |   0.751532E-04 |   0.439188E-02 |   0.100000E-04
  19 |   0.520159E+00 |   0.391133E-05 |   0.203451E-05 |   0.430016E-04 |   0.143789E-02 |   0.100000E-04
  20 |   0.557543E+00 |   0.519164E-06 |   0.289456E-06 |   0.260962E-04 |   0.529555E-03 |   0.100000E-04
  21 |   0.750736E+00 |   0.883846E-07 |   0.663536E-07 |   0.956220E-05 |   0.711004E-04 |   0.100000E-04
  22 |   0.595121E+00 |   0.378805E-07 |   0.225435E-07 |   0.384831E-05 |   0.115159E-04 |   0.100000E-04
  23 |   0.573320E+00 |   0.815045E-08 |   0.467282E-08 |   0.157284E-05 |   0.192365E-05 |   0.100000E-04

 Charges are converged, EXIT

%%%% DENSITY %%%%%%%%%%%%%%%%%%%%%%%%%%%%%%%%%%%%%%%%%%%%%%%%%%%%%%%%%%%%%%%%%%%

 density label              = velectrostatic                                    

 integral of density        =   -1353.888162    

%%%% CHARGES %%%%%%%%%%%%%%%%%%%%%%%%%%%%%%%%%%%%%%%%%%%%%%%%%%%%%%%%%%%%%%%%%%%

 total number of charges    =            100

 total charge               =     -0.0000000

%%%% DENSITY %%%%%%%%%%%%%%%%%%%%%%%%%%%%%%%%%%%%%%%%%%%%%%%%%%%%%%%%%%%%%%%%%%%

 density label              = vsoftcavity                                       

 integral of density        =    4.229716055    

%%%% DENSITY %%%%%%%%%%%%%%%%%%%%%%%%%%%%%%%%%%%%%%%%%%%%%%%%%%%%%%%%%%%%%%%%%%%

 density label              = dvtot                                             

 integral of density        =   -1349.658446    

%%%% ELECTRONS %%%%%%%%%%%%%%%%%%%%%%%%%%%%%%%%%%%%%%%%%%%%%%%%%%%%%%%%%%%%%%%%%

 number of electrons        =             90

 total electronic charge    =     90.0000000

%%%% ELECTRONS %%%%%%%%%%%%%%%%%%%%%%%%%%%%%%%%%%%%%%%%%%%%%%%%%%%%%%%%%%%%%%%%%

 number of electrons        =             90

 total electronic charge    =     90.0000000

%%%% CHARGES %%%%%%%%%%%%%%%%%%%%%%%%%%%%%%%%%%%%%%%%%%%%%%%%%%%%%%%%%%%%%%%%%%%

 total number of charges    =            100

 total charge               =     -0.0000000

%%%% CHARGES %%%%%%%%%%%%%%%%%%%%%%%%%%%%%%%%%%%%%%%%%%%%%%%%%%%%%%%%%%%%%%%%%%%

 total number of charges    =            100

 total charge               =     -0.0000000

%%%% BOUNDARY %%%%%%%%%%%%%%%%%%%%%%%%%%%%%%%%%%%%%%%%%%%%%%%%%%%%%%%%%%%%%%%%%%

 boundary label             = solvent             
 boundary mode              = full                

 using the optimal SCCS function:
 rhomax                     =      0.0050000
 rhomin                     =      0.0001000

 volume of the QM region    =   1474.9782736

 surface of the QM region   =    260.9206782

%%%% DENSITY %%%%%%%%%%%%%%%%%%%%%%%%%%%%%%%%%%%%%%%%%%%%%%%%%%%%%%%%%%%%%%%%%%%

 density label              = vreference                                        

 integral of density        =   0.1436559451E-12

%%%% COMPUTE ELECTROSTATIC POTENTIAL %%%%%%%%%%%%%%%%%%%%%%%%%%%%%%%%%%%%%%%%%%%

 Warning: Bad guess with residual norm =   0.187426E+04, reset to no guess

   i |      alpha     |       pAp      |      rzold     |    delta_qm    |    delta_en    |       tol
 ---------------------------------------------------------------------------------------------------------
   1 |   0.999617E+00 |   0.127081E+04 |   0.127032E+04 |   0.490762E-01 |   0.187283E+04 |   0.100000E-04
   2 |   0.333523E-01 |   0.366714E+03 |   0.122308E+02 |   0.135146E-01 |   0.142025E+03 |   0.100000E-04
   3 |   0.137481E+00 |   0.266951E+01 |   0.367008E+00 |   0.992098E-02 |   0.765359E+02 |   0.100000E-04
   4 |   0.155254E+01 |   0.793442E-02 |   0.123185E-01 |   0.122664E-01 |   0.117001E+03 |   0.100000E-04
   5 |  -0.787515E-01 |   0.453324E+00 |  -0.357000E-01 |   0.178431E-01 |   0.247570E+03 |   0.100000E-04
   6 |  -0.530702E+00 |  -0.868007E-01 |   0.460653E-01 |   0.135947E-02 |   0.143712E+01 |   0.100000E-04
   7 |   0.323030E+00 |   0.998020E-02 |   0.322390E-02 |   0.796046E-03 |   0.492757E+00 |   0.100000E-04
   8 |   0.411066E+00 |   0.920708E-03 |   0.378472E-03 |   0.675179E-03 |   0.354482E+00 |   0.100000E-04
   9 |   0.454884E+00 |   0.244400E-03 |   0.111174E-03 |   0.659633E-03 |   0.338346E+00 |   0.100000E-04
  10 |   0.107178E+01 |   0.685133E-04 |   0.734312E-04 |   0.691189E-03 |   0.371492E+00 |   0.100000E-04
  11 |   0.190996E+01 |   0.788442E-04 |   0.150589E-03 |   0.870047E-03 |   0.588629E+00 |   0.100000E-04
  12 |   0.741559E+00 |   0.645359E-03 |   0.478572E-03 |   0.837528E-03 |   0.545450E+00 |   0.100000E-04
  13 |   0.463348E+00 |   0.626003E-03 |   0.290057E-03 |   0.988137E-03 |   0.759260E+00 |   0.100000E-04
  14 |   0.502281E-01 |   0.260066E-01 |   0.130626E-02 |   0.816046E-03 |   0.517828E+00 |   0.100000E-04
  15 |   0.865874E+00 |   0.872492E-04 |   0.755468E-04 |   0.506350E-03 |   0.199369E+00 |   0.100000E-04
  16 |   0.695328E+00 |   0.881845E-04 |   0.613172E-04 |   0.260514E-03 |   0.527739E-01 |   0.100000E-04
  17 |   0.365125E+00 |   0.150956E-03 |   0.551179E-04 |   0.155389E-03 |   0.187758E-01 |   0.100000E-04
  18 |   0.491949E+00 |   0.355547E-04 |   0.174911E-04 |   0.751446E-04 |   0.439088E-02 |   0.100000E-04
  19 |   0.519079E+00 |   0.392603E-05 |   0.203792E-05 |   0.430125E-04 |   0.143862E-02 |   0.100000E-04
  20 |   0.557570E+00 |   0.519349E-06 |   0.289573E-06 |   0.261003E-04 |   0.529720E-03 |   0.100000E-04
  21 |   0.750607E+00 |   0.884951E-07 |   0.664250E-07 |   0.956368E-05 |   0.711223E-04 |   0.100000E-04
  22 |   0.595069E+00 |   0.379192E-07 |   0.225645E-07 |   0.384625E-05 |   0.115035E-04 |   0.100000E-04
  23 |   0.573101E+00 |   0.815934E-08 |   0.467612E-08 |   0.160481E-05 |   0.200264E-05 |   0.100000E-04

 Charges are converged, EXIT

%%%% DENSITY %%%%%%%%%%%%%%%%%%%%%%%%%%%%%%%%%%%%%%%%%%%%%%%%%%%%%%%%%%%%%%%%%%%

 density label              = velectrostatic                                    

 integral of density        =   -1353.906583    

%%%% CHARGES %%%%%%%%%%%%%%%%%%%%%%%%%%%%%%%%%%%%%%%%%%%%%%%%%%%%%%%%%%%%%%%%%%%

 total number of charges    =            100

 total charge               =     -0.0000000

%%%% DENSITY %%%%%%%%%%%%%%%%%%%%%%%%%%%%%%%%%%%%%%%%%%%%%%%%%%%%%%%%%%%%%%%%%%%

 density label              = vsoftcavity                                       

 integral of density        =    4.228230389    

%%%% DENSITY %%%%%%%%%%%%%%%%%%%%%%%%%%%%%%%%%%%%%%%%%%%%%%%%%%%%%%%%%%%%%%%%%%%

 density label              = dvtot                                             

 integral of density        =   -1349.678353    

%%%% ELECTRONS %%%%%%%%%%%%%%%%%%%%%%%%%%%%%%%%%%%%%%%%%%%%%%%%%%%%%%%%%%%%%%%%%

 number of electrons        =             90

 total electronic charge    =     90.0000000

%%%% ELECTRONS %%%%%%%%%%%%%%%%%%%%%%%%%%%%%%%%%%%%%%%%%%%%%%%%%%%%%%%%%%%%%%%%%

 number of electrons        =             90

 total electronic charge    =     90.0000000

%%%% CHARGES %%%%%%%%%%%%%%%%%%%%%%%%%%%%%%%%%%%%%%%%%%%%%%%%%%%%%%%%%%%%%%%%%%%

 total number of charges    =            100

 total charge               =     -0.0000000

%%%% CHARGES %%%%%%%%%%%%%%%%%%%%%%%%%%%%%%%%%%%%%%%%%%%%%%%%%%%%%%%%%%%%%%%%%%%

 total number of charges    =            100

 total charge               =     -0.0000000

%%%% BOUNDARY %%%%%%%%%%%%%%%%%%%%%%%%%%%%%%%%%%%%%%%%%%%%%%%%%%%%%%%%%%%%%%%%%%

 boundary label             = solvent             
 boundary mode              = full                

 using the optimal SCCS function:
 rhomax                     =      0.0050000
 rhomin                     =      0.0001000

 volume of the QM region    =   1474.9782736

 surface of the QM region   =    260.9206782

%%%% DENSITY %%%%%%%%%%%%%%%%%%%%%%%%%%%%%%%%%%%%%%%%%%%%%%%%%%%%%%%%%%%%%%%%%%%

 density label              = dvtot                                             

 integral of density        =   -1349.678353    

%%%% DENSITY %%%%%%%%%%%%%%%%%%%%%%%%%%%%%%%%%%%%%%%%%%%%%%%%%%%%%%%%%%%%%%%%%%%

 density label              = vreference                                        

 integral of density        =   0.1436559451E-12

%%%% DENSITY %%%%%%%%%%%%%%%%%%%%%%%%%%%%%%%%%%%%%%%%%%%%%%%%%%%%%%%%%%%%%%%%%%%

 density label              = velectrostatic                                    

 integral of density        =   -1353.906583    

%%%% CHARGES %%%%%%%%%%%%%%%%%%%%%%%%%%%%%%%%%%%%%%%%%%%%%%%%%%%%%%%%%%%%%%%%%%%

 total number of charges    =            100

 total charge               =     -0.0000000

%%%% DENSITY %%%%%%%%%%%%%%%%%%%%%%%%%%%%%%%%%%%%%%%%%%%%%%%%%%%%%%%%%%%%%%%%%%%

 density label              = vsoftcavity                                       

 integral of density        =    4.228230389    
