
     Program PWSCF v.6.1 (svn rev. 13369) starts on 14Nov2017 at 16:21:47 

     This program is part of the open-source Quantum ESPRESSO suite
     for quantum simulation of materials; please cite
         "P. Giannozzi et al., J. Phys.:Condens. Matter 21 395502 (2009);
          URL http://www.quantum-espresso.org", 
     in publications or presentations arising from this work. More details at
     http://www.quantum-espresso.org/quote

     Parallel version (MPI), running on     1 processors
     Reading input from charged.in

     Current dimensions of program PWSCF are:
     Max number of different atomic species (ntypx) = 10
     Max number of k-points (npk) =  40000
     Max angular momentum in pseudopotentials (lmaxx) =  3
               file C.pbe-rrkjus.UPF: wavefunction(s)  2S 2P renormalized
               file O.pbe-rrkjus.UPF: wavefunction(s)  2S renormalized

     gamma-point specific algorithms are used

     Subspace diagonalization in iterative solution of the eigenvalue problem:
     a serial algorithm will be used

 
     G-vector sticks info
     --------------------
     sticks:   dense  smooth     PW     G-vecs:    dense   smooth      PW
     Sum        2357    1099    269               366833   116965   14571
 


     bravais-lattice index     =            8
     lattice parameter (alat)  =      10.6881  a.u.
     unit-cell volume          =    4181.1215 (a.u.)^3
     number of atoms/cell      =           10
     number of atomic types    =            3
     number of electrons       =        89.00
     number of Kohn-Sham states=           80
     kinetic-energy cutoff     =      35.0000  Ry
     charge density cutoff     =     300.0000  Ry
     convergence threshold     =      5.0E-03
     mixing beta               =       0.7000
     number of iterations used =            8  plain     mixing
     Exchange-correlation      = PBE ( 1  4  3  4 0 0)
 

     Environ Module
     ==============

     Plese cite
         O. Andreussi, I. Dabo and N. Marzari, J. Chem. Phys. 136, 064102 (2012)         
     in publications or presentations arising from this work.

     compensation onset threshold      =               0.1000E+03 

     Electrostatic Setup
     -------------------
     electrostatic problem to solve    = poisson                  
     numerical solver adopted          = direct                   
     type of auxiliary density adopted = none                     
     type of core tool for poisson     = fft                      
     type of core tool for s(r) deriv  = analytic                 



     celldm(1)=  10.688100  celldm(2)=   0.866025  celldm(3)=   3.954220
     celldm(4)=   0.000000  celldm(5)=   0.000000  celldm(6)=   0.000000

     crystal axes: (cart. coord. in units of alat)
               a(1) = (   1.000000   0.000000   0.000000 )  
               a(2) = (   0.000000   0.866025   0.000000 )  
               a(3) = (   0.000000   0.000000   3.954220 )  

     reciprocal axes: (cart. coord. in units 2 pi/alat)
               b(1) = (  1.000000  0.000000  0.000000 )  
               b(2) = (  0.000000  1.154701  0.000000 )  
               b(3) = (  0.000000  0.000000  0.252894 )  


     PseudoPot. # 1 for C  read from file:
     /home/andreo/PWSCF/espresso-6.1-Environ-1.0/Environ/tests/../..//pseudo/C.pbe-rrkjus.UPF
     MD5 check sum: 00fb224312de0c5b6853bd333518df6f
     Pseudo is Ultrasoft, Zval =  4.0
     Generated by new atomic code, or converted to UPF format
     Using radial grid of  627 points,  4 beta functions with: 
                l(1) =   0
                l(2) =   0
                l(3) =   1
                l(4) =   1
     Q(r) pseudized with 0 coefficients 


     PseudoPot. # 2 for O  read from file:
     /home/andreo/PWSCF/espresso-6.1-Environ-1.0/Environ/tests/../..//pseudo/O.pbe-rrkjus.UPF
     MD5 check sum: 390ba29e75625707450f3bd3f0eb6be9
     Pseudo is Ultrasoft, Zval =  6.0
     Generated by new atomic code, or converted to UPF format
     Using radial grid of 1269 points,  4 beta functions with: 
                l(1) =   0
                l(2) =   0
                l(3) =   1
                l(4) =   1
     Q(r) pseudized with 0 coefficients 


     PseudoPot. # 3 for Pt read from file:
     /home/andreo/PWSCF/espresso-6.1-Environ-1.0/Environ/tests/../..//pseudo/Pt.pbe-n-rrkjus_psl.0.1.UPF
     MD5 check sum: df5be8f5ed4f66d4aed38ca70ec8d507
     Pseudo is Ultrasoft + core correction, Zval = 10.0
     Generated using "atomic" code by A. Dal Corso  v.5.0.2 svn rev. 9415
     Using radial grid of 1277 points,  6 beta functions with: 
                l(1) =   0
                l(2) =   0
                l(3) =   1
                l(4) =   1
                l(5) =   2
                l(6) =   2
     Q(r) pseudized with 0 coefficients 


     atomic species   valence    mass     pseudopotential
        C              4.00     1.00000     C ( 1.00)
        O              6.00     1.00000     O ( 1.00)
        Pt            10.00     1.00000     Pt( 1.00)

     No symmetry found



   Cartesian axes

     site n.     atom                  positions (alat units)
         1           C   tau(   1) = (   0.4991611   0.4347567   1.2070461  )
         2           O   tau(   2) = (   0.4991542   0.4322212   1.4109013  )
         3           Pt  tau(   3) = (   0.7542339   0.0091745   0.8413229  )
         4           Pt  tau(   4) = (   0.2441023   0.0091745   0.8413226  )
         5           Pt  tau(   5) = (   0.0000034   0.4416918   0.8391348  )
         6           Pt  tau(   6) = (   0.4991682   0.4417635   0.8776299  )
         7           Pt  tau(   7) = (   0.0000038   0.7300598   0.4308181  )
         8           Pt  tau(   8) = (   0.4991683   0.7202168   0.4447460  )
         9           Pt  tau(   9) = (   0.2524172   0.2949237   0.4386572  )
        10           Pt  tau(  10) = (   0.7459196   0.2949237   0.4386575  )

     number of k points=     1  Marzari-Vanderbilt smearing, width (Ry)=  0.0300
                       cart. coord. in units 2pi/alat
        k(    1) = (   0.0000000   0.0000000   0.0000000), wk =   2.0000000

     Dense  grid:   183417 G-vectors     FFT dimensions: (  60,  54, 240)

     Smooth grid:    58483 G-vectors     FFT dimensions: (  45,  36, 160)

     Estimated max dynamical RAM per process >     231.32MB

     Initial potential from superposition of free atoms
     Check: negative starting charge=   -0.003086

     starting charge   89.99859, renormalised to   89.00000

     negative rho (up, down):  3.052E-03 0.000E+00
     Starting wfc are   80 randomized atomic wfcs

     total cpu time spent up to now is        6.0 secs

     per-process dynamical memory:   193.5 Mb

     Self-consistent Calculation

     iteration #  1     ecut=    35.00 Ry     beta=0.70
     Davidson diagonalization with overlap
     ethr =  1.00E-02,  avg # of iterations =  5.0

     negative rho (up, down):  2.890E-03 0.000E+00

     add environment contribution to local potential

     total cpu time spent up to now is        9.5 secs

     total energy              =    -622.68827052 Ry
     Harris-Foulkes estimate   =    -624.21132537 Ry
     estimated scf accuracy    <       1.86639615 Ry
     electrostatic embedding   =       0.03381190 Ry
     correction to one-el term =       0.00000000 Ry

     iteration #  2     ecut=    35.00 Ry     beta=0.70
     Davidson diagonalization with overlap
     ethr =  2.10E-03,  avg # of iterations =  6.0

     negative rho (up, down):  3.559E-02 0.000E+00

     total cpu time spent up to now is       13.1 secs

     total energy              =    -614.67976143 Ry
     Harris-Foulkes estimate   =    -644.87870024 Ry
     estimated scf accuracy    <     222.69793189 Ry
     electrostatic embedding   =       0.18951583 Ry
     correction to one-el term =       9.81977599 Ry

     iteration #  3     ecut=    35.00 Ry     beta=0.70
     Davidson diagonalization with overlap
     ethr =  2.10E-03,  avg # of iterations =  6.0

     negative rho (up, down):  2.193E-02 0.000E+00

     add environment contribution to local potential

     total cpu time spent up to now is       16.8 secs

     total energy              =    -623.32819753 Ry
     Harris-Foulkes estimate   =    -633.99474441 Ry
     estimated scf accuracy    <       5.21993612 Ry
     electrostatic embedding   =       0.21352857 Ry
     correction to one-el term =       9.77175051 Ry

     iteration #  4     ecut=    35.00 Ry     beta=0.70
     Davidson diagonalization with overlap
     ethr =  2.10E-03,  avg # of iterations =  4.0

     negative rho (up, down):  6.046E-03 0.000E+00

     add environment contribution to local potential

     total cpu time spent up to now is       19.8 secs

     total energy              =    -623.65010394 Ry
     Harris-Foulkes estimate   =    -638.24834301 Ry
     estimated scf accuracy    <       7.78525704 Ry
     electrostatic embedding   =       0.24856153 Ry
     correction to one-el term =      13.79142104 Ry

     iteration #  5     ecut=    35.00 Ry     beta=0.70
     Davidson diagonalization with overlap
     ethr =  2.10E-03,  avg # of iterations =  1.0

     negative rho (up, down):  9.086E-03 0.000E+00

     add environment contribution to local potential

     total cpu time spent up to now is       22.6 secs

     total energy              =    -623.73967871 Ry
     Harris-Foulkes estimate   =    -638.07451434 Ry
     estimated scf accuracy    <       3.96738458 Ry
     electrostatic embedding   =       0.25043956 Ry
     correction to one-el term =      13.85328296 Ry

     iteration #  6     ecut=    35.00 Ry     beta=0.70
     Davidson diagonalization with overlap
     ethr =  2.10E-03,  avg # of iterations =  1.0

     negative rho (up, down):  8.781E-03 0.000E+00

     add environment contribution to local potential

     total cpu time spent up to now is       25.4 secs

     total energy              =    -623.73313165 Ry
     Harris-Foulkes estimate   =    -637.93331842 Ry
     estimated scf accuracy    <       2.58186648 Ry
     electrostatic embedding   =       0.25117886 Ry
     correction to one-el term =      13.83683275 Ry

     iteration #  7     ecut=    35.00 Ry     beta=0.70
     Davidson diagonalization with overlap
     ethr =  2.10E-03,  avg # of iterations =  1.0

     negative rho (up, down):  7.359E-03 0.000E+00

     add environment contribution to local potential

     total cpu time spent up to now is       28.2 secs

     total energy              =    -623.70585371 Ry
     Harris-Foulkes estimate   =    -637.95049407 Ry
     estimated scf accuracy    <       1.51646095 Ry
     electrostatic embedding   =       0.24917182 Ry
     correction to one-el term =      13.93888895 Ry

     iteration #  8     ecut=    35.00 Ry     beta=0.70
     Davidson diagonalization with overlap
     ethr =  1.70E-03,  avg # of iterations =  1.0

     negative rho (up, down):  5.926E-03 0.000E+00

     add environment contribution to local potential

     total cpu time spent up to now is       30.9 secs

     total energy              =    -623.70522416 Ry
     Harris-Foulkes estimate   =    -637.57193693 Ry
     estimated scf accuracy    <       0.34450711 Ry
     electrostatic embedding   =       0.24559714 Ry
     correction to one-el term =      13.60358582 Ry

     iteration #  9     ecut=    35.00 Ry     beta=0.70
     Davidson diagonalization with overlap
     ethr =  3.87E-04,  avg # of iterations =  1.0

     negative rho (up, down):  5.296E-03 0.000E+00

     add environment contribution to local potential

     total cpu time spent up to now is       33.7 secs

     total energy              =    -623.69234842 Ry
     Harris-Foulkes estimate   =    -637.39329624 Ry
     estimated scf accuracy    <       0.18077526 Ry
     electrostatic embedding   =       0.24229244 Ry
     correction to one-el term =      13.44666610 Ry

     iteration # 10     ecut=    35.00 Ry     beta=0.70
     Davidson diagonalization with overlap
     ethr =  2.03E-04,  avg # of iterations =  4.0

     negative rho (up, down):  4.373E-03 0.000E+00

     add environment contribution to local potential

     total cpu time spent up to now is       36.6 secs

     total energy              =    -623.68320651 Ry
     Harris-Foulkes estimate   =    -637.08666265 Ry
     estimated scf accuracy    <       0.08504948 Ry
     electrostatic embedding   =       0.23860720 Ry
     correction to one-el term =      13.15642554 Ry

     iteration # 11     ecut=    35.00 Ry     beta=0.70
     Davidson diagonalization with overlap
     ethr =  9.56E-05,  avg # of iterations =  4.0

     negative rho (up, down):  4.024E-03 0.000E+00

     add environment contribution to local potential

     total cpu time spent up to now is       39.5 secs

     total energy              =    -623.66834014 Ry
     Harris-Foulkes estimate   =    -636.85234529 Ry
     estimated scf accuracy    <       0.03449961 Ry
     electrostatic embedding   =       0.23268688 Ry
     correction to one-el term =      12.93971000 Ry

     iteration # 12     ecut=    35.00 Ry     beta=0.70
     Davidson diagonalization with overlap
     ethr =  3.88E-05,  avg # of iterations =  8.0

     negative rho (up, down):  3.707E-03 0.000E+00

     add environment contribution to local potential

     total cpu time spent up to now is       42.7 secs

     total energy              =    -623.67610937 Ry
     Harris-Foulkes estimate   =    -636.17043001 Ry
     estimated scf accuracy    <       0.00898695 Ry
     electrostatic embedding   =       0.22888279 Ry
     correction to one-el term =      12.26315229 Ry

     iteration # 13     ecut=    35.00 Ry     beta=0.70
     Davidson diagonalization with overlap
     ethr =  1.01E-05,  avg # of iterations =  3.0

     negative rho (up, down):  3.777E-03 0.000E+00

     add environment contribution to local potential

     total cpu time spent up to now is       45.5 secs

     total energy              =    -623.67605326 Ry
     Harris-Foulkes estimate   =    -636.17730167 Ry
     estimated scf accuracy    <       0.01183588 Ry
     electrostatic embedding   =       0.22878501 Ry
     correction to one-el term =      12.27023395 Ry

     iteration # 14     ecut=    35.00 Ry     beta=0.70
     Davidson diagonalization with overlap
     ethr =  1.01E-05,  avg # of iterations =  1.0

     negative rho (up, down):  3.900E-03 0.000E+00

     total cpu time spent up to now is       48.2 secs

     End of self-consistent calculation

          k = 0.0000 0.0000 0.0000 (  7286 PWs)   bands (ev):

   -29.0877 -16.0652 -14.6838 -13.3312 -12.6130 -12.5197 -12.2526 -12.2158
   -12.0658 -11.4175 -11.4148 -11.1840 -11.0927 -11.0672 -10.9613 -10.8454
   -10.1258 -10.0624 -10.0128  -9.8398  -9.8065  -9.7744  -9.7321  -9.7045
    -9.6929  -9.5075  -9.4884  -9.3774  -9.2438  -9.0313  -8.9407  -8.1555
    -8.0425  -7.8348  -7.5532  -7.5369  -7.4712  -7.2997  -7.1504  -7.0191
    -6.8305  -6.8236  -6.6191  -6.5877  -6.5404  -6.3733  -6.2232  -5.1348
    -4.7903  -4.7727  -4.1470  -3.5425  -3.1902  -2.0074  -1.9073  -1.7436
    -0.6594  -0.2211   0.7654   1.0572   1.4131   1.7900   2.2040   2.4634
     2.4901   3.7021   4.2574   5.0167   5.0819   5.2272   5.5305   5.8145
     6.1375   6.3797   6.7022   6.9362   7.1594   7.4918   7.9050   7.9977

     the Fermi energy is    -6.4526 ev

!    total energy              =    -623.67704734 Ry
     Harris-Foulkes estimate   =    -636.15041008 Ry
     estimated scf accuracy    <       0.00045857 Ry

     The total energy is the sum of the following terms:

     one-electron contribution =   -3954.55212285 Ry
     hartree contribution      =    2007.90050998 Ry
     xc contribution           =    -262.70129638 Ry
     ewald contribution        =    1573.20467954 Ry
     smearing contrib. (-TS)   =      -0.00179751 Ry
     electrostatic embedding   =       0.22863870 Ry
     correction to one-el term =      12.24434117 Ry

     convergence has been achieved in  14 iterations

     negative rho (up, down):  3.900E-03 0.000E+00

     Forces acting on atoms (cartesian axes, Ry/au):

     atom    1 type  1   force =     0.00000895   -0.00413108    0.11554764
     atom    2 type  2   force =     0.00019573    0.00137192   -0.04878134
     atom    3 type  3   force =    -0.00132732    0.01291750    0.02845502
     atom    4 type  3   force =     0.00196917    0.01235947    0.03152675
     atom    5 type  3   force =    -0.00546614    0.01085262   -0.00421344
     atom    6 type  3   force =     0.00411726    0.00835072    0.02688040
     atom    7 type  3   force =    -0.00476939   -0.01060359   -0.04597778
     atom    8 type  3   force =     0.00411839   -0.01682061   -0.02423768
     atom    9 type  3   force =     0.01846685   -0.00679542   -0.04062325
     atom   10 type  3   force =    -0.01731350   -0.00750152   -0.03857632

     Total force =     0.160846     Total SCF correction =     0.083722
     SCF correction compared to forces is large: reduce conv_thr to get better values

     Writing output data file pwscf.save
 
     init_run     :      5.58s CPU      5.67s WALL (       1 calls)
     electrons    :     40.95s CPU     42.84s WALL (       1 calls)
     forces       :      3.82s CPU      3.86s WALL (       1 calls)

     Called by init_run:
     wfcinit      :      0.40s CPU      0.41s WALL (       1 calls)
     potinit      :      2.06s CPU      2.09s WALL (       1 calls)

     Called by electrons:
     c_bands      :     15.47s CPU     15.58s WALL (      14 calls)
     sum_band     :     11.52s CPU     12.14s WALL (      14 calls)
     v_of_rho     :      5.09s CPU      5.16s WALL (      15 calls)
     newd         :      6.69s CPU      7.16s WALL (      15 calls)
     mix_rho      :      0.64s CPU      0.64s WALL (      14 calls)

     Called by c_bands:
     init_us_2    :      0.12s CPU      0.14s WALL (      29 calls)
     regterg      :     14.49s CPU     14.59s WALL (      14 calls)

     Called by sum_band:
     sum_band:bec :      0.00s CPU      0.00s WALL (      14 calls)
     addusdens    :      8.02s CPU      8.63s WALL (      14 calls)

     Called by *egterg:
     h_psi        :     11.62s CPU     11.65s WALL (      61 calls)
     s_psi        :      0.57s CPU      0.57s WALL (      61 calls)
     g_psi        :      0.10s CPU      0.11s WALL (      46 calls)
     rdiaghg      :      0.45s CPU      0.45s WALL (      60 calls)

     Called by h_psi:
     h_psi:pot    :     11.56s CPU     11.59s WALL (      61 calls)
     h_psi:calbec :      0.59s CPU      0.60s WALL (      61 calls)
     vloc_psi     :     10.40s CPU     10.42s WALL (      61 calls)
     add_vuspsi   :      0.56s CPU      0.57s WALL (      61 calls)

     General routines
     calbec       :      0.93s CPU      0.93s WALL (      79 calls)
     fft          :      4.06s CPU      4.25s WALL (     296 calls)
     ffts         :      0.12s CPU      0.12s WALL (      29 calls)
     fftw         :     10.56s CPU     10.71s WALL (    3290 calls)
     interpolate  :      0.64s CPU      0.63s WALL (      29 calls)
     davcio       :      0.00s CPU      0.00s WALL (       1 calls)
 
     Parallel routines
     fft_scatter  :      1.50s CPU      1.54s WALL (    3615 calls)
 
     Environ routines
     calc_eelect  :      0.02s CPU      0.02s WALL (      28 calls)
     calc_velect  :      1.38s CPU      1.40s WALL (      24 calls)
     calc_felect  :      0.10s CPU      0.11s WALL (       1 calls)
 
     PWSCF        :    50.76s CPU        55.10s WALL

 
   This run was terminated on:  16:22:42  14Nov2017            

=------------------------------------------------------------------------------=
   JOB DONE.
=------------------------------------------------------------------------------=

%%%% IONS %%%%%%%%%%%%%%%%%%%%%%%%%%%%%%%%%%%%%%%%%%%%%%%%%%%%%%%%%%%%%%%%%%%%%%
 number of ions             =         10
 ionic center of charge     =      0.3882415     0.3750182     0.7201831
 total ionic charge         =    -90.0000000
 ionic dipole               =      0.0000000     0.0000000     0.0000000
 ionic quadrupole (pc)      =   -730.5101255  -614.6110457  -876.7220256
 ionic quadrupole (gauss)   =   -741.7601255  -625.8610457  -887.9720256
 ion   1 type =  1 coordinates =      5.3350841     4.6467234    12.9010299
 ion   2 type =  2 coordinates =      5.3350096     4.6196233    15.0798543
 ion   3 type =  3 coordinates =      8.0613271     0.0980580     8.9921429
 ion   4 type =  3 coordinates =      2.6089894     0.0980583     8.9921406
 ion   5 type =  3 coordinates =      0.0000366     4.7208463     8.9687569
 ion   6 type =  3 coordinates =      5.3351596     4.7216127     9.3801964
 ion   7 type =  3 coordinates =      0.0000411     7.8029520     4.6046265
 ion   8 type =  3 coordinates =      5.3351612     7.6977491     4.7534894
 ion   9 type =  3 coordinates =      2.6978606     3.1521739     4.6884123
 ion  10 type =  3 coordinates =      7.9724637     3.1521745     4.6884152

%%%% SYSTEM %%%%%%%%%%%%%%%%%%%%%%%%%%%%%%%%%%%%%%%%%%%%%%%%%%%%%%%%%%%%%%%%%%%%
 system is built from all present ionic types
 system defined dimension   =  0 
 system defined axis        =  3 
 system center              =      0.3882415     0.3750182     0.7201831 
 system width               =      1.5145225 

%%%% ELECTRONS %%%%%%%%%%%%%%%%%%%%%%%%%%%%%%%%%%%%%%%%%%%%%%%%%%%%%%%%%%%%%%%%%
 number of electrons        =         89
 total electronic charge    =     89.0000000
 number of spin components  =  1

%%%% ELECTRONS %%%%%%%%%%%%%%%%%%%%%%%%%%%%%%%%%%%%%%%%%%%%%%%%%%%%%%%%%%%%%%%%%
 number of electrons        =         89
 total electronic charge    =     89.0000000
 number of spin components  =  1

%%%% ELECTRONS %%%%%%%%%%%%%%%%%%%%%%%%%%%%%%%%%%%%%%%%%%%%%%%%%%%%%%%%%%%%%%%%%
 number of electrons        =         89
 total electronic charge    =     89.0000000
 number of spin components  =  1

%%%% ELECTRONS %%%%%%%%%%%%%%%%%%%%%%%%%%%%%%%%%%%%%%%%%%%%%%%%%%%%%%%%%%%%%%%%%
 number of electrons        =         89
 total electronic charge    =     89.0000000
 number of spin components  =  1

%%%% ELECTRONS %%%%%%%%%%%%%%%%%%%%%%%%%%%%%%%%%%%%%%%%%%%%%%%%%%%%%%%%%%%%%%%%%
 number of electrons        =         89
 total electronic charge    =     89.0000000
 number of spin components  =  1

%%%% ELECTRONS %%%%%%%%%%%%%%%%%%%%%%%%%%%%%%%%%%%%%%%%%%%%%%%%%%%%%%%%%%%%%%%%%
 number of electrons        =         89
 total electronic charge    =     89.0000000
 number of spin components  =  1

%%%% ELECTRONS %%%%%%%%%%%%%%%%%%%%%%%%%%%%%%%%%%%%%%%%%%%%%%%%%%%%%%%%%%%%%%%%%
 number of electrons        =         89
 total electronic charge    =     89.0000000
 number of spin components  =  1

%%%% ELECTRONS %%%%%%%%%%%%%%%%%%%%%%%%%%%%%%%%%%%%%%%%%%%%%%%%%%%%%%%%%%%%%%%%%
 number of electrons        =         89
 total electronic charge    =     89.0000000
 number of spin components  =  1

%%%% ELECTRONS %%%%%%%%%%%%%%%%%%%%%%%%%%%%%%%%%%%%%%%%%%%%%%%%%%%%%%%%%%%%%%%%%
 number of electrons        =         89
 total electronic charge    =     89.0000000
 number of spin components  =  1

%%%% ELECTRONS %%%%%%%%%%%%%%%%%%%%%%%%%%%%%%%%%%%%%%%%%%%%%%%%%%%%%%%%%%%%%%%%%
 number of electrons        =         89
 total electronic charge    =     89.0000000
 number of spin components  =  1

%%%% ELECTRONS %%%%%%%%%%%%%%%%%%%%%%%%%%%%%%%%%%%%%%%%%%%%%%%%%%%%%%%%%%%%%%%%%
 number of electrons        =         89
 total electronic charge    =     89.0000000
 number of spin components  =  1

%%%% ELECTRONS %%%%%%%%%%%%%%%%%%%%%%%%%%%%%%%%%%%%%%%%%%%%%%%%%%%%%%%%%%%%%%%%%
 number of electrons        =         89
 total electronic charge    =     89.0000000
 number of spin components  =  1

%%%% ELECTRONS %%%%%%%%%%%%%%%%%%%%%%%%%%%%%%%%%%%%%%%%%%%%%%%%%%%%%%%%%%%%%%%%%
 number of electrons        =         89
 total electronic charge    =     89.0000000
 number of spin components  =  1

%%%% ELECTRONS %%%%%%%%%%%%%%%%%%%%%%%%%%%%%%%%%%%%%%%%%%%%%%%%%%%%%%%%%%%%%%%%%
 number of electrons        =         89
 total electronic charge    =     89.0000000
 number of spin components  =  1
