
     Program PWSCF v.6.3MaX starts on 21Apr2019 at 23:40:35 

     This program is part of the open-source Quantum ESPRESSO suite
     for quantum simulation of materials; please cite
         "P. Giannozzi et al., J. Phys.:Condens. Matter 21 395502 (2009);
         "P. Giannozzi et al., J. Phys.:Condens. Matter 29 465901 (2017);
          URL http://www.quantum-espresso.org", 
     in publications or presentations arising from this work. More details at
     http://www.quantum-espresso.org/quote

     Parallel version (MPI), running on     1 processors

     MPI processes distributed on     1 nodes
     Reading input from charged.in

     Current dimensions of program PWSCF are:
     Max number of different atomic species (ntypx) = 10
     Max number of k-points (npk) =  40000
     Max angular momentum in pseudopotentials (lmaxx) =  3
     Message from routine  environ_checkin    :
      use some old legacy code for environ
               file C.pbe-rrkjus.UPF: wavefunction(s)  2S 2P renormalized
               file O.pbe-rrkjus.UPF: wavefunction(s)  2S renormalized

     gamma-point specific algorithms are used

     Subspace diagonalization in iterative solution of the eigenvalue problem:
     a serial algorithm will be used

 
     G-vector sticks info
     --------------------
     sticks:   dense  smooth     PW     G-vecs:    dense   smooth      PW
     Sum        2357    1099    269               366833   116965   14571
 


     bravais-lattice index     =            8
     lattice parameter (alat)  =      10.6881  a.u.
     unit-cell volume          =    4181.1215 (a.u.)^3
     number of atoms/cell      =           10
     number of atomic types    =            3
     number of electrons       =        89.00
     number of Kohn-Sham states=           80
     kinetic-energy cutoff     =      35.0000  Ry
     charge density cutoff     =     300.0000  Ry
     convergence threshold     =      5.0E-03
     mixing beta               =       0.7000
     number of iterations used =            8  plain     mixing
     Exchange-correlation      = PBE ( 1  4  3  4 0 0)
 

     Environ Module
     ==============

     Plese cite
         O. Andreussi, I. Dabo and N. Marzari, J. Chem. Phys. 136, 064102 (2012)         
     in publications or presentations arising from this work.

     compensation onset threshold      =               0.1000E+03 
     switching function adopted        =                     SCCS 
     density limit for vacuum region   =               0.5000E-02 
     density limit for bulk solvent    =               0.1000E-03 
     static permittivity               =                   100.00 
     epsilon calculation mode          =                     full 

     Electrostatic Setup
     -------------------
     electrostatic problem to solve    = generalized              
     numerical solver adopted          = iterative                
     type of auxiliary density adopted = full                     
     type of core tool for poisson     = fft                      
     type of core tool for s(r) deriv  = fd                       
     type of numerical differentiator  =            central diff. 
     number of points in num. diff.    =                        2 



     celldm(1)=  10.688100  celldm(2)=   0.866025  celldm(3)=   3.954220
     celldm(4)=   0.000000  celldm(5)=   0.000000  celldm(6)=   0.000000

     crystal axes: (cart. coord. in units of alat)
               a(1) = (   1.000000   0.000000   0.000000 )  
               a(2) = (   0.000000   0.866025   0.000000 )  
               a(3) = (   0.000000   0.000000   3.954220 )  

     reciprocal axes: (cart. coord. in units 2 pi/alat)
               b(1) = (  1.000000  0.000000  0.000000 )  
               b(2) = (  0.000000  1.154701  0.000000 )  
               b(3) = (  0.000000  0.000000  0.252894 )  


     PseudoPot. # 1 for C  read from file:
     /home/fnattino/Programs/quantumespresso/q-e-qe-6.3-develop/Environ/tests/../..//pseudo/C.pbe-rrkjus.UPF
     MD5 check sum: c9ac5a99bc85b198593446162950cd17
     Pseudo is Ultrasoft, Zval =  4.0
     Generated by new atomic code, or converted to UPF format
     Using radial grid of  627 points,  4 beta functions with: 
                l(1) =   0
                l(2) =   0
                l(3) =   1
                l(4) =   1
     Q(r) pseudized with 0 coefficients 


     PseudoPot. # 2 for O  read from file:
     /home/fnattino/Programs/quantumespresso/q-e-qe-6.3-develop/Environ/tests/../..//pseudo/O.pbe-rrkjus.UPF
     MD5 check sum: fadcf19ee70a498d3030e2e79cf929a4
     Pseudo is Ultrasoft, Zval =  6.0
     Generated by new atomic code, or converted to UPF format
     Using radial grid of 1269 points,  4 beta functions with: 
                l(1) =   0
                l(2) =   0
                l(3) =   1
                l(4) =   1
     Q(r) pseudized with 0 coefficients 


     PseudoPot. # 3 for Pt read from file:
     /home/fnattino/Programs/quantumespresso/q-e-qe-6.3-develop/Environ/tests/../..//pseudo/Pt.pbe-n-rrkjus_psl.0.1.UPF
     MD5 check sum: 957548fe13c2a9232dd96292d902c87c
     Pseudo is Ultrasoft + core correction, Zval = 10.0
     Generated using "atomic" code by A. Dal Corso v.5.0.2 svn rev. 9415
     Using radial grid of 1277 points,  6 beta functions with: 
                l(1) =   0
                l(2) =   0
                l(3) =   1
                l(4) =   1
                l(5) =   2
                l(6) =   2
     Q(r) pseudized with 0 coefficients 


     atomic species   valence    mass     pseudopotential
        C              4.00     1.00000     C ( 1.00)
        O              6.00     1.00000     O ( 1.00)
        Pt            10.00     1.00000     Pt( 1.00)

     No symmetry found



   Cartesian axes

     site n.     atom                  positions (alat units)
         1           C   tau(   1) = (   0.4991611   0.4347567   1.2070461  )
         2           O   tau(   2) = (   0.4991542   0.4322212   1.4109013  )
         3           Pt  tau(   3) = (   0.7542339   0.0091745   0.8413229  )
         4           Pt  tau(   4) = (   0.2441023   0.0091745   0.8413226  )
         5           Pt  tau(   5) = (   0.0000034   0.4416918   0.8391348  )
         6           Pt  tau(   6) = (   0.4991682   0.4417635   0.8776299  )
         7           Pt  tau(   7) = (   0.0000038   0.7300598   0.4308181  )
         8           Pt  tau(   8) = (   0.4991683   0.7202168   0.4447460  )
         9           Pt  tau(   9) = (   0.2524172   0.2949237   0.4386572  )
        10           Pt  tau(  10) = (   0.7459196   0.2949237   0.4386575  )

     number of k points=     1  Marzari-Vanderbilt smearing, width (Ry)=  0.0300
                       cart. coord. in units 2pi/alat
        k(    1) = (   0.0000000   0.0000000   0.0000000), wk =   2.0000000

     Dense  grid:   183417 G-vectors     FFT dimensions: (  60,  54, 240)

     Smooth grid:    58483 G-vectors     FFT dimensions: (  45,  36, 160)

     Estimated max dynamical RAM per process >     774.12 MB

     Initial potential from superposition of free atoms
     Check: negative starting charge=   -0.003086

     starting charge   89.99859, renormalised to   89.00000

     negative rho (up, down):  3.052E-03 0.000E+00
     Starting wfcs are   80 randomized atomic wfcs

     total cpu time spent up to now is        7.0 secs

     Self-consistent Calculation

     iteration #  1     ecut=    35.00 Ry     beta= 0.70
     Davidson diagonalization with overlap
     ethr =  1.00E-02,  avg # of iterations =  5.0

     negative rho (up, down):  2.890E-03 0.000E+00

     add environment contribution to local potential
     polarization accuracy = 7.3E-12, # of iterations =  42

     total cpu time spent up to now is       14.6 secs

     total energy              =    -622.68848465 Ry
     Harris-Foulkes estimate   =    -624.21153311 Ry
     estimated scf accuracy    <       1.86638802 Ry
     electrostatic embedding   =       0.03381190 Ry
     correction to one-el term =       0.00000000 Ry

     iteration #  2     ecut=    35.00 Ry     beta= 0.70
     Davidson diagonalization with overlap
     ethr =  2.10E-03,  avg # of iterations = 12.0

     negative rho (up, down):  2.158E-02 0.000E+00

     total cpu time spent up to now is       18.9 secs

     total energy              =    -612.39700527 Ry
     Harris-Foulkes estimate   =    -641.65096878 Ry
     estimated scf accuracy    <     329.70863904 Ry
     electrostatic embedding   =       0.25503122 Ry
     correction to one-el term =       5.38134217 Ry

     iteration #  3     ecut=    35.00 Ry     beta= 0.70
     Davidson diagonalization with overlap
     ethr =  2.10E-03,  avg # of iterations =  6.0

     negative rho (up, down):  1.087E-02 0.000E+00

     add environment contribution to local potential
     polarization accuracy = 9.3E-12, # of iterations =  45

     total cpu time spent up to now is       27.2 secs

     total energy              =    -623.32158615 Ry
     Harris-Foulkes estimate   =    -630.22813198 Ry
     estimated scf accuracy    <       8.62490851 Ry
     electrostatic embedding   =       0.05037920 Ry
     correction to one-el term =       5.79422830 Ry

     iteration #  4     ecut=    35.00 Ry     beta= 0.70
     Davidson diagonalization with overlap
     ethr =  2.10E-03,  avg # of iterations =  9.0

     negative rho (up, down):  6.053E-03 0.000E+00

     add environment contribution to local potential
     polarization accuracy = 7.5E-12, # of iterations =  42

     total cpu time spent up to now is       35.5 secs

     total energy              =    -623.22934923 Ry
     Harris-Foulkes estimate   =    -631.62765550 Ry
     estimated scf accuracy    <      32.17541556 Ry
     electrostatic embedding   =       0.18869605 Ry
     correction to one-el term =       6.44263703 Ry

     iteration #  5     ecut=    35.00 Ry     beta= 0.70
     Davidson diagonalization with overlap
     ethr =  2.10E-03,  avg # of iterations =  3.0

     negative rho (up, down):  3.494E-03 0.000E+00

     add environment contribution to local potential
     polarization accuracy = 7.7E-12, # of iterations =  43

     total cpu time spent up to now is       43.0 secs

     total energy              =    -623.81676060 Ry
     Harris-Foulkes estimate   =    -628.81307921 Ry
     estimated scf accuracy    <       4.55657970 Ry
     electrostatic embedding   =       0.14917991 Ry
     correction to one-el term =       4.57640319 Ry

     iteration #  6     ecut=    35.00 Ry     beta= 0.70
     Davidson diagonalization with overlap
     ethr =  2.10E-03,  avg # of iterations =  4.0

     negative rho (up, down):  4.557E-03 0.000E+00

     add environment contribution to local potential
     polarization accuracy = 1.0E-11, # of iterations =  36

     total cpu time spent up to now is       49.9 secs

     total energy              =    -624.11205761 Ry
     Harris-Foulkes estimate   =    -626.35353205 Ry
     estimated scf accuracy    <       4.77394279 Ry
     electrostatic embedding   =       0.11809596 Ry
     correction to one-el term =       2.04311218 Ry

     iteration #  7     ecut=    35.00 Ry     beta= 0.70
     Davidson diagonalization with overlap
     ethr =  2.10E-03,  avg # of iterations =  1.0

     negative rho (up, down):  4.593E-03 0.000E+00

     add environment contribution to local potential
     polarization accuracy = 9.7E-12, # of iterations =  43

     total cpu time spent up to now is       57.6 secs

     total energy              =    -624.16592880 Ry
     Harris-Foulkes estimate   =    -625.54599800 Ry
     estimated scf accuracy    <       3.92763189 Ry
     electrostatic embedding   =       0.10624914 Ry
     correction to one-el term =       1.20365275 Ry

     iteration #  8     ecut=    35.00 Ry     beta= 0.70
     Davidson diagonalization with overlap
     ethr =  2.10E-03,  avg # of iterations =  2.0

     negative rho (up, down):  3.959E-03 0.000E+00

     add environment contribution to local potential
     polarization accuracy = 8.0E-12, # of iterations =  44

     total cpu time spent up to now is       65.2 secs

     total energy              =    -624.22890752 Ry
     Harris-Foulkes estimate   =    -623.63051673 Ry
     estimated scf accuracy    <       3.41571778 Ry
     electrostatic embedding   =       0.07521339 Ry
     correction to one-el term =      -0.74992431 Ry

     iteration #  9     ecut=    35.00 Ry     beta= 0.70
     Davidson diagonalization with overlap
     ethr =  2.10E-03,  avg # of iterations =  1.0

     negative rho (up, down):  3.221E-03 0.000E+00

     add environment contribution to local potential
     polarization accuracy = 8.0E-12, # of iterations =  43

     total cpu time spent up to now is       72.8 secs

     total energy              =    -624.12017533 Ry
     Harris-Foulkes estimate   =    -622.03997878 Ry
     estimated scf accuracy    <       2.34127837 Ry
     electrostatic embedding   =       0.04656202 Ry
     correction to one-el term =      -2.19615545 Ry

     iteration # 10     ecut=    35.00 Ry     beta= 0.70
     Davidson diagonalization with overlap
     ethr =  2.10E-03,  avg # of iterations =  1.0

     negative rho (up, down):  2.250E-03 0.000E+00

     add environment contribution to local potential
     polarization accuracy = 8.0E-12, # of iterations =  43

     total cpu time spent up to now is       80.2 secs

     total energy              =    -623.99644602 Ry
     Harris-Foulkes estimate   =    -620.66716814 Ry
     estimated scf accuracy    <       0.98654601 Ry
     electrostatic embedding   =       0.02128437 Ry
     correction to one-el term =      -3.40115299 Ry

     iteration # 11     ecut=    35.00 Ry     beta= 0.70
     Davidson diagonalization with overlap
     ethr =  1.11E-03,  avg # of iterations =  5.0

     negative rho (up, down):  4.031E-03 0.000E+00

     add environment contribution to local potential
     polarization accuracy = 8.6E-12, # of iterations =  44

     total cpu time spent up to now is       87.9 secs

     total energy              =    -623.78402354 Ry
     Harris-Foulkes estimate   =    -619.32058824 Ry
     estimated scf accuracy    <       0.13172052 Ry
     electrostatic embedding   =      -0.00405646 Ry
     correction to one-el term =      -4.52807409 Ry

     iteration # 12     ecut=    35.00 Ry     beta= 0.70
     Davidson diagonalization with overlap
     ethr =  1.48E-04,  avg # of iterations =  9.0

     negative rho (up, down):  2.815E-03 0.000E+00

     add environment contribution to local potential
     polarization accuracy = 7.9E-12, # of iterations =  44

     total cpu time spent up to now is       96.2 secs

     total energy              =    -623.66341889 Ry
     Harris-Foulkes estimate   =    -628.28352341 Ry
     estimated scf accuracy    <       0.60856907 Ry
     electrostatic embedding   =       0.15987335 Ry
     correction to one-el term =       4.39262342 Ry

     iteration # 13     ecut=    35.00 Ry     beta= 0.70
     Davidson diagonalization with overlap
     ethr =  1.48E-04,  avg # of iterations =  9.0

     negative rho (up, down):  3.561E-03 0.000E+00

     add environment contribution to local potential
     polarization accuracy = 8.1E-12, # of iterations =  42

     total cpu time spent up to now is      103.8 secs

     total energy              =    -623.63704285 Ry
     Harris-Foulkes estimate   =    -630.17307301 Ry
     estimated scf accuracy    <       0.74383055 Ry
     electrostatic embedding   =       0.18257240 Ry
     correction to one-el term =       6.24187567 Ry

     iteration # 14     ecut=    35.00 Ry     beta= 0.70
     Davidson diagonalization with overlap
     ethr =  1.48E-04,  avg # of iterations =  6.0

     negative rho (up, down):  2.324E-03 0.000E+00

     add environment contribution to local potential
     polarization accuracy = 9.7E-12, # of iterations =  35

     total cpu time spent up to now is      110.6 secs

     total energy              =    -623.68447949 Ry
     Harris-Foulkes estimate   =    -630.51243871 Ry
     estimated scf accuracy    <       0.14846739 Ry
     electrostatic embedding   =       0.18678942 Ry
     correction to one-el term =       6.62118383 Ry

     iteration # 15     ecut=    35.00 Ry     beta= 0.70
     Davidson diagonalization with overlap
     ethr =  1.48E-04,  avg # of iterations =  4.0

     negative rho (up, down):  3.316E-03 0.000E+00

     add environment contribution to local potential
     polarization accuracy = 8.5E-12, # of iterations =  34

     total cpu time spent up to now is      117.1 secs

     total energy              =    -623.69134909 Ry
     Harris-Foulkes estimate   =    -631.37961844 Ry
     estimated scf accuracy    <       0.05309010 Ry
     electrostatic embedding   =       0.19721257 Ry
     correction to one-el term =       7.48047907 Ry

     iteration # 16     ecut=    35.00 Ry     beta= 0.70
     Davidson diagonalization with overlap
     ethr =  5.97E-05,  avg # of iterations =  6.0

     negative rho (up, down):  3.746E-03 0.000E+00

     add environment contribution to local potential
     polarization accuracy = 9.1E-12, # of iterations =  34

     total cpu time spent up to now is      123.7 secs

     total energy              =    -623.69533384 Ry
     Harris-Foulkes estimate   =    -631.69877422 Ry
     estimated scf accuracy    <       0.05501615 Ry
     electrostatic embedding   =       0.20110604 Ry
     correction to one-el term =       7.79830108 Ry

     iteration # 17     ecut=    35.00 Ry     beta= 0.70
     Davidson diagonalization with overlap
     ethr =  5.97E-05,  avg # of iterations =  1.0

     negative rho (up, down):  3.544E-03 0.000E+00

     the potential shift due to the Gaussian-smeared nuclei is    -0.4600 ev

     total cpu time spent up to now is      126.5 secs

     End of self-consistent calculation

          k = 0.0000 0.0000 0.0000 (  7286 PWs)   bands (ev):

   -29.4685 -16.0137 -14.4483 -13.1601 -12.9781 -12.3634 -12.3354 -12.2726
   -12.0826 -11.2618 -11.1437 -11.0176 -10.8081 -10.7620 -10.6694 -10.5573
    -9.8622  -9.8102  -9.7649  -9.5660  -9.5199  -9.4778  -9.4324  -9.3908
    -9.3786  -9.2018  -9.1769  -9.0871  -8.9693  -8.7477  -8.6321  -7.8796
    -7.7559  -7.4787  -7.2512  -7.2108  -7.1409  -6.9842  -6.8110  -6.7034
    -6.5104  -6.4960  -6.2978  -6.2724  -6.2292  -6.0539  -5.9195  -4.8235
    -4.5088  -4.4384  -3.8412  -3.1536  -2.9887  -1.9769  -1.6893  -1.6555
    -0.3308  -0.1209  -0.0320   0.3085   0.7829   1.1204   1.3510   1.3626
     2.2239   2.4387   2.6466   2.7793   2.9304   3.2607   4.0878   4.5429
     4.6231   4.6487   4.8990   5.2578   5.3220   5.4151   5.5359   5.7450

     the Fermi energy is    -6.1363 ev

!    total energy              =    -623.69301068 Ry
     Harris-Foulkes estimate   =    -631.73252979 Ry
     estimated scf accuracy    <       0.00478406 Ry

     The total energy is the sum of the following terms:

     one-electron contribution =   -3948.14646367 Ry
     hartree contribution      =    2006.00101212 Ry
     xc contribution           =    -262.78525173 Ry
     ewald contribution        =    1573.20467954 Ry
     smearing contrib. (-TS)   =      -0.00226357 Ry
     electrostatic embedding   =       0.20182609 Ry
     correction to one-el term =       7.83345055 Ry

     WARNING: you are using the parabolic pbc correction;
              the potential shift above must be added to 
              band and Fermi energies.

     convergence has been achieved in  17 iterations

     negative rho (up, down):  3.544E-03 0.000E+00

     Forces acting on atoms (cartesian axes, Ry/au):

     atom    1 type  1   force =    -0.00039391   -0.00468234    0.08012607
     atom    2 type  2   force =    -0.00027644    0.00147397   -0.04634556
     atom    3 type  3   force =     0.00298204    0.01144962    0.03668770
     atom    4 type  3   force =    -0.00152404    0.01172587    0.03480223
     atom    5 type  3   force =     0.00210673    0.01290830    0.00522982
     atom    6 type  3   force =    -0.00279691    0.00940352    0.04947834
     atom    7 type  3   force =    -0.00107282   -0.01133440   -0.04441100
     atom    8 type  3   force =    -0.00052352   -0.01815855   -0.02837431
     atom    9 type  3   force =     0.01576550   -0.00704117   -0.04175099
     atom   10 type  3   force =    -0.01426663   -0.00574482   -0.04544230

     Total force =     0.147486     Total SCF correction =     0.171493
     SCF correction compared to forces is large: reduce conv_thr to get better values

     Writing output data file pwscf.save/
 
     init_run     :      5.71s CPU      6.08s WALL (       1 calls)
     electrons    :    110.79s CPU    119.49s WALL (       1 calls)
     forces       :      3.51s CPU      3.76s WALL (       1 calls)

     Called by init_run:
     wfcinit      :      0.28s CPU      0.30s WALL (       1 calls)
     potinit      :      1.45s CPU      1.50s WALL (       1 calls)
     hinit0       :      3.54s CPU      3.57s WALL (       1 calls)

     Called by electrons:
     c_bands      :     16.86s CPU     17.41s WALL (      17 calls)
     sum_band     :     11.38s CPU     14.84s WALL (      17 calls)
     v_of_rho     :      4.32s CPU      4.57s WALL (      18 calls)
     newd         :      7.34s CPU     11.33s WALL (      18 calls)
     mix_rho      :      0.45s CPU      0.45s WALL (      17 calls)

     Called by c_bands:
     init_us_2    :      0.16s CPU      0.17s WALL (      35 calls)
     regterg      :     15.75s CPU     16.30s WALL (      17 calls)

     Called by sum_band:
     sum_band:bec :      0.00s CPU      0.00s WALL (      17 calls)
     addusdens    :      8.97s CPU     12.39s WALL (      17 calls)

     Called by *egterg:
     h_psi        :     12.04s CPU     12.07s WALL (     102 calls)
     s_psi        :      0.54s CPU      0.55s WALL (     102 calls)
     g_psi        :      0.10s CPU      0.10s WALL (      84 calls)
     rdiaghg      :      0.83s CPU      0.83s WALL (     101 calls)

     Called by h_psi:
     h_psi:pot    :     12.01s CPU     12.02s WALL (     102 calls)
     h_psi:calbec :      0.50s CPU      0.53s WALL (     102 calls)
     vloc_psi     :     10.91s CPU     10.91s WALL (     102 calls)
     add_vuspsi   :      0.61s CPU      0.58s WALL (     102 calls)

     General routines
     calbec       :      0.69s CPU      0.72s WALL (     123 calls)
     fft          :     18.44s CPU     18.73s WALL (    2919 calls)
     ffts         :      0.08s CPU      0.08s WALL (      35 calls)
     fftw         :     10.89s CPU     10.89s WALL (    4468 calls)
     interpolate  :      0.20s CPU      0.27s WALL (      18 calls)
 
     Parallel routines
 
     Environ routines
     calc_eelect  :      0.02s CPU      0.02s WALL (      34 calls)
     calc_velect  :     66.19s CPU     66.29s WALL (      30 calls)
     dielectric   :      0.59s CPU      0.59s WALL (      20 calls)
     calc_felect  :      0.07s CPU      0.08s WALL (       1 calls)
 
     PWSCF        :  2m 0.90s CPU     2m10.25s WALL

 
   This run was terminated on:  23:42:45  21Apr2019            

=------------------------------------------------------------------------------=
   JOB DONE.
=------------------------------------------------------------------------------=

%%%% IONS %%%%%%%%%%%%%%%%%%%%%%%%%%%%%%%%%%%%%%%%%%%%%%%%%%%%%%%%%%%%%%%%%%%%%%
 number of ions             =         10
 ionic center of charge     =      0.3882415     0.3750182     0.7201831
 total ionic charge         =    -90.0000000
 ionic dipole               =      0.0000000     0.0000000     0.0000000
 ionic quadrupole (pc)      =   -730.5101255  -614.6110457  -876.7220256
 ionic quadrupole (gauss)   =   -741.7601255  -625.8610457  -887.9720256
 ion   1 type =  1 coordinates =      5.3350841     4.6467234    12.9010299
 ion   2 type =  2 coordinates =      5.3350096     4.6196233    15.0798543
 ion   3 type =  3 coordinates =      8.0613271     0.0980580     8.9921429
 ion   4 type =  3 coordinates =      2.6089894     0.0980583     8.9921406
 ion   5 type =  3 coordinates =      0.0000366     4.7208463     8.9687569
 ion   6 type =  3 coordinates =      5.3351596     4.7216127     9.3801964
 ion   7 type =  3 coordinates =      0.0000411     7.8029520     4.6046265
 ion   8 type =  3 coordinates =      5.3351612     7.6977491     4.7534894
 ion   9 type =  3 coordinates =      2.6978606     3.1521739     4.6884123
 ion  10 type =  3 coordinates =      7.9724637     3.1521745     4.6884152

%%%% SYSTEM %%%%%%%%%%%%%%%%%%%%%%%%%%%%%%%%%%%%%%%%%%%%%%%%%%%%%%%%%%%%%%%%%%%%
 system is built from all present ionic types
 system defined dimension   =  0 
 system defined axis        =  3 
 system center              =      0.3882415     0.3750182     0.7201831 
 system width               =      0.7019013 

%%%% ELECTRONS %%%%%%%%%%%%%%%%%%%%%%%%%%%%%%%%%%%%%%%%%%%%%%%%%%%%%%%%%%%%%%%%%
 number of electrons        =         89
 total electronic charge    =     89.0000000
 number of spin components  =  1

%%%% BOUNDARY %%%%%%%%%%%%%%%%%%%%%%%%%%%%%%%%%%%%%%%%%%%%%%%%%%%%%%%%%%%%%%%%%%
 boundary label             = solvent              
 boundary mode              = full                 
 boundary is built as a function of a smooth density
 function type              =  1 
 using the optimal SCCS function with parameters 
 rhomax                     =      0.0050000 
 rhomin                     =      0.0001000 
 volume of the QM region    =   1488.5391184 
 surface of the QM region   =    254.9333968 

%%%% DIELECTRIC %%%%%%%%%%%%%%%%%%%%%%%%%%%%%%%%%%%%%%%%%%%%%%%%%%%%%%%%%%%%%%%%%
 dielectric build on homogeneous background
 environment bulk permitt.  =    100.0000000 
 dielectric flags
 need gradient              =  F 
 need factor depend. sqrt   =  F 
 total dielectric charge    =      0.0000000

%%%% DENSITY %%%%%%%%%%%%%%%%%%%%%%%%%%%%%%%%%%%%%%%%%%%%%%%%%%%%%%%%%%%%%%%%%%%
 density label              = vreference                                                                      
 integral of density        =      0.000000000    

%%%% DENSITY %%%%%%%%%%%%%%%%%%%%%%%%%%%%%%%%%%%%%%%%%%%%%%%%%%%%%%%%%%%%%%%%%%%
 density label              = velectrostatic                                                                  
 integral of density        =      0.000000000    

%%%% CHARGES %%%%%%%%%%%%%%%%%%%%%%%%%%%%%%%%%%%%%%%%%%%%%%%%%%%%%%%%%%%%%%%%%%%
 total number of charges    =         99
 total charge               =     -1.0000000

%%%% DENSITY %%%%%%%%%%%%%%%%%%%%%%%%%%%%%%%%%%%%%%%%%%%%%%%%%%%%%%%%%%%%%%%%%%%
 density label              = vsoftcavity                                                                     
 integral of density        =      0.000000000    

%%%% ELECTRONS %%%%%%%%%%%%%%%%%%%%%%%%%%%%%%%%%%%%%%%%%%%%%%%%%%%%%%%%%%%%%%%%%
 number of electrons        =         89
 total electronic charge    =     89.0000000
 number of spin components  =  1

%%%% BOUNDARY %%%%%%%%%%%%%%%%%%%%%%%%%%%%%%%%%%%%%%%%%%%%%%%%%%%%%%%%%%%%%%%%%%
 boundary label             = solvent              
 boundary mode              = full                 
 boundary is built as a function of a smooth density
 function type              =  1 
 using the optimal SCCS function with parameters 
 rhomax                     =      0.0050000 
 rhomin                     =      0.0001000 
 volume of the QM region    =   1394.6932434 
 surface of the QM region   =    258.4138028 

%%%% DIELECTRIC %%%%%%%%%%%%%%%%%%%%%%%%%%%%%%%%%%%%%%%%%%%%%%%%%%%%%%%%%%%%%%%%%
 dielectric build on homogeneous background
 environment bulk permitt.  =    100.0000000 
 dielectric flags
 need gradient              =  F 
 need factor depend. sqrt   =  F 
 total dielectric charge    =      0.0000000

%%%% DENSITY %%%%%%%%%%%%%%%%%%%%%%%%%%%%%%%%%%%%%%%%%%%%%%%%%%%%%%%%%%%%%%%%%%%
 density label              = vreference                                                                      
 integral of density        =    -0.5202342646E-12

%%%% COMPUTE ELECTROSTATIC POTENTIAL %%%%%%%%%%%%%%%%%%%%%%%%%%%%%%%%%%%%%%%%%%%
 Starting from polarization: rhoiter =      0.000000 jellium =      0.000000
 Iteration #          1
 delta_qm =   0.487462E-02 delta_en =   0.552793E-05 tol =   0.100000E-10
 Iteration #          2
 delta_qm =   0.519193E-02 delta_en =   0.588777E-05 tol =   0.100000E-10
 Iteration #          3
 delta_qm =   0.170198E-02 delta_en =   0.193008E-05 tol =   0.100000E-10
 Iteration #          4
 delta_qm =   0.143144E-02 delta_en =   0.162329E-05 tol =   0.100000E-10
 Iteration #          5
 delta_qm =   0.702240E-03 delta_en =   0.796356E-06 tol =   0.100000E-10
 Iteration #          6
 delta_qm =   0.536893E-03 delta_en =   0.608849E-06 tol =   0.100000E-10
 Iteration #          7
 delta_qm =   0.435911E-03 delta_en =   0.494333E-06 tol =   0.100000E-10
 Iteration #          8
 delta_qm =   0.275441E-03 delta_en =   0.312356E-06 tol =   0.100000E-10
 Iteration #          9
 delta_qm =   0.194712E-03 delta_en =   0.220807E-06 tol =   0.100000E-10
 Iteration #         10
 delta_qm =   0.164300E-03 delta_en =   0.186320E-06 tol =   0.100000E-10
 Iteration #         11
 delta_qm =   0.114470E-03 delta_en =   0.129811E-06 tol =   0.100000E-10
 Iteration #         12
 delta_qm =   0.751148E-04 delta_en =   0.851820E-07 tol =   0.100000E-10
 Iteration #         13
 delta_qm =   0.614215E-04 delta_en =   0.696534E-07 tol =   0.100000E-10
 Iteration #         14
 delta_qm =   0.460797E-04 delta_en =   0.522555E-07 tol =   0.100000E-10
 Iteration #         15
 delta_qm =   0.296293E-04 delta_en =   0.336003E-07 tol =   0.100000E-10
 Iteration #         16
 delta_qm =   0.225628E-04 delta_en =   0.255867E-07 tol =   0.100000E-10
 Iteration #         17
 delta_qm =   0.178792E-04 delta_en =   0.202754E-07 tol =   0.100000E-10
 Iteration #         18
 delta_qm =   0.117263E-04 delta_en =   0.132979E-07 tol =   0.100000E-10
 Iteration #         19
 delta_qm =   0.821559E-05 delta_en =   0.931667E-08 tol =   0.100000E-10
 Iteration #         20
 delta_qm =   0.678856E-05 delta_en =   0.769838E-08 tol =   0.100000E-10
 Iteration #         21
 delta_qm =   0.476947E-05 delta_en =   0.540869E-08 tol =   0.100000E-10
 Iteration #         22
 delta_qm =   0.311252E-05 delta_en =   0.352967E-08 tol =   0.100000E-10
 Iteration #         23
 delta_qm =   0.249970E-05 delta_en =   0.283472E-08 tol =   0.100000E-10
 Iteration #         24
 delta_qm =   0.189325E-05 delta_en =   0.214699E-08 tol =   0.100000E-10
 Iteration #         25
 delta_qm =   0.123245E-05 delta_en =   0.139762E-08 tol =   0.100000E-10
 Iteration #         26
 delta_qm =   0.928079E-06 delta_en =   0.105246E-08 tol =   0.100000E-10
 Iteration #         27
 delta_qm =   0.740097E-06 delta_en =   0.839287E-09 tol =   0.100000E-10
 Iteration #         28
 delta_qm =   0.497072E-06 delta_en =   0.563691E-09 tol =   0.100000E-10
 Iteration #         29
 delta_qm =   0.346217E-06 delta_en =   0.392618E-09 tol =   0.100000E-10
 Iteration #         30
 delta_qm =   0.282585E-06 delta_en =   0.320458E-09 tol =   0.100000E-10
 Iteration #         31
 delta_qm =   0.202660E-06 delta_en =   0.229822E-09 tol =   0.100000E-10
 Iteration #         32
 delta_qm =   0.133026E-06 delta_en =   0.150854E-09 tol =   0.100000E-10
 Iteration #         33
 delta_qm =   0.103776E-06 delta_en =   0.117684E-09 tol =   0.100000E-10
 Iteration #         34
 delta_qm =   0.804620E-07 delta_en =   0.912458E-10 tol =   0.100000E-10
 Iteration #         35
 delta_qm =   0.550899E-07 delta_en =   0.624732E-10 tol =   0.100000E-10
 Iteration #         36
 delta_qm =   0.401759E-07 delta_en =   0.455604E-10 tol =   0.100000E-10
 Iteration #         37
 delta_qm =   0.308702E-07 delta_en =   0.350075E-10 tol =   0.100000E-10
 Iteration #         38
 delta_qm =   0.218345E-07 delta_en =   0.247608E-10 tol =   0.100000E-10
 Iteration #         39
 delta_qm =   0.162805E-07 delta_en =   0.184625E-10 tol =   0.100000E-10
 Iteration #         40
 delta_qm =   0.129781E-07 delta_en =   0.147174E-10 tol =   0.100000E-10
 Iteration #         41
 delta_qm =   0.926361E-08 delta_en =   0.105051E-10 tol =   0.100000E-10
 Iteration #         42
 delta_qm =   0.646194E-08 delta_en =   0.732799E-11 tol =   0.100000E-10
 Charges are converged, EXIT

%%%% DENSITY %%%%%%%%%%%%%%%%%%%%%%%%%%%%%%%%%%%%%%%%%%%%%%%%%%%%%%%%%%%%%%%%%%%
 density label              = velectrostatic                                                                  
 integral of density        =     -1268.489416    

%%%% CHARGES %%%%%%%%%%%%%%%%%%%%%%%%%%%%%%%%%%%%%%%%%%%%%%%%%%%%%%%%%%%%%%%%%%%
 total number of charges    =         99
 total charge               =     -1.0000000

%%%% DENSITY %%%%%%%%%%%%%%%%%%%%%%%%%%%%%%%%%%%%%%%%%%%%%%%%%%%%%%%%%%%%%%%%%%%
 density label              = vsoftcavity                                                                     
 integral of density        =      1337.470372    

%%%% ELECTRONS %%%%%%%%%%%%%%%%%%%%%%%%%%%%%%%%%%%%%%%%%%%%%%%%%%%%%%%%%%%%%%%%%
 number of electrons        =         89
 total electronic charge    =     89.0000000
 number of spin components  =  1

%%%% BOUNDARY %%%%%%%%%%%%%%%%%%%%%%%%%%%%%%%%%%%%%%%%%%%%%%%%%%%%%%%%%%%%%%%%%%
 boundary label             = solvent              
 boundary mode              = full                 
 boundary is built as a function of a smooth density
 function type              =  1 
 using the optimal SCCS function with parameters 
 rhomax                     =      0.0050000 
 rhomin                     =      0.0001000 
 volume of the QM region    =   1563.4490036 
 surface of the QM region   =    948.2443212 

%%%% DIELECTRIC %%%%%%%%%%%%%%%%%%%%%%%%%%%%%%%%%%%%%%%%%%%%%%%%%%%%%%%%%%%%%%%%%
 dielectric build on homogeneous background
 environment bulk permitt.  =    100.0000000 
 dielectric flags
 need gradient              =  F 
 need factor depend. sqrt   =  F 
 total dielectric charge    =      0.9901416

%%%% DENSITY %%%%%%%%%%%%%%%%%%%%%%%%%%%%%%%%%%%%%%%%%%%%%%%%%%%%%%%%%%%%%%%%%%%
 density label              = vreference                                                                      
 integral of density        =    -0.5202342646E-12

%%%% DENSITY %%%%%%%%%%%%%%%%%%%%%%%%%%%%%%%%%%%%%%%%%%%%%%%%%%%%%%%%%%%%%%%%%%%
 density label              = velectrostatic                                                                  
 integral of density        =     -1268.489416    

%%%% CHARGES %%%%%%%%%%%%%%%%%%%%%%%%%%%%%%%%%%%%%%%%%%%%%%%%%%%%%%%%%%%%%%%%%%%
 total number of charges    =         99
 total charge               =     -1.0000000

%%%% DENSITY %%%%%%%%%%%%%%%%%%%%%%%%%%%%%%%%%%%%%%%%%%%%%%%%%%%%%%%%%%%%%%%%%%%
 density label              = vsoftcavity                                                                     
 integral of density        =      1337.470372    

%%%% ELECTRONS %%%%%%%%%%%%%%%%%%%%%%%%%%%%%%%%%%%%%%%%%%%%%%%%%%%%%%%%%%%%%%%%%
 number of electrons        =         89
 total electronic charge    =     89.0000000
 number of spin components  =  1

%%%% BOUNDARY %%%%%%%%%%%%%%%%%%%%%%%%%%%%%%%%%%%%%%%%%%%%%%%%%%%%%%%%%%%%%%%%%%
 boundary label             = solvent              
 boundary mode              = full                 
 boundary is built as a function of a smooth density
 function type              =  1 
 using the optimal SCCS function with parameters 
 rhomax                     =      0.0050000 
 rhomin                     =      0.0001000 
 volume of the QM region    =   1381.9436063 
 surface of the QM region   =    296.5585027 

%%%% DIELECTRIC %%%%%%%%%%%%%%%%%%%%%%%%%%%%%%%%%%%%%%%%%%%%%%%%%%%%%%%%%%%%%%%%%
 dielectric build on homogeneous background
 environment bulk permitt.  =    100.0000000 
 dielectric flags
 need gradient              =  F 
 need factor depend. sqrt   =  F 
 total dielectric charge    =      0.9901416

%%%% DENSITY %%%%%%%%%%%%%%%%%%%%%%%%%%%%%%%%%%%%%%%%%%%%%%%%%%%%%%%%%%%%%%%%%%%
 density label              = vreference                                                                      
 integral of density        =     0.1025559998E-11

%%%% COMPUTE ELECTROSTATIC POTENTIAL %%%%%%%%%%%%%%%%%%%%%%%%%%%%%%%%%%%%%%%%%%%
 Starting from polarization: rhoiter =      1.230167 jellium =      0.000000
 Iteration #          1
 delta_qm =   0.586059E-03 delta_en =   0.664605E-06 tol =   0.100000E-10
 Iteration #          2
 delta_qm =   0.504869E-03 delta_en =   0.572533E-06 tol =   0.100000E-10
 Iteration #          3
 delta_qm =   0.166803E-03 delta_en =   0.189159E-06 tol =   0.100000E-10
 Iteration #          4
 delta_qm =   0.118887E-03 delta_en =   0.134821E-06 tol =   0.100000E-10
 Iteration #          5
 delta_qm =   0.609764E-04 delta_en =   0.691486E-07 tol =   0.100000E-10
 Iteration #          6
 delta_qm =   0.508476E-04 delta_en =   0.576624E-07 tol =   0.100000E-10
 Iteration #          7
 delta_qm =   0.464344E-04 delta_en =   0.526577E-07 tol =   0.100000E-10
 Iteration #          8
 delta_qm =   0.432467E-04 delta_en =   0.490427E-07 tol =   0.100000E-10
 Iteration #          9
 delta_qm =   0.405953E-04 delta_en =   0.460360E-07 tol =   0.100000E-10
 Iteration #         10
 delta_qm =   0.367229E-04 delta_en =   0.416447E-07 tol =   0.100000E-10
 Iteration #         11
 delta_qm =   0.321702E-04 delta_en =   0.364818E-07 tol =   0.100000E-10
 Iteration #         12
 delta_qm =   0.277671E-04 delta_en =   0.314885E-07 tol =   0.100000E-10
 Iteration #         13
 delta_qm =   0.236821E-04 delta_en =   0.268561E-07 tol =   0.100000E-10
 Iteration #         14
 delta_qm =   0.199378E-04 delta_en =   0.226099E-07 tol =   0.100000E-10
 Iteration #         15
 delta_qm =   0.165866E-04 delta_en =   0.188096E-07 tol =   0.100000E-10
 Iteration #         16
 delta_qm =   0.136164E-04 delta_en =   0.154414E-07 tol =   0.100000E-10
 Iteration #         17
 delta_qm =   0.110112E-04 delta_en =   0.124870E-07 tol =   0.100000E-10
 Iteration #         18
 delta_qm =   0.879001E-05 delta_en =   0.996807E-08 tol =   0.100000E-10
 Iteration #         19
 delta_qm =   0.695490E-05 delta_en =   0.788702E-08 tol =   0.100000E-10
 Iteration #         20
 delta_qm =   0.547052E-05 delta_en =   0.620370E-08 tol =   0.100000E-10
 Iteration #         21
 delta_qm =   0.428410E-05 delta_en =   0.485827E-08 tol =   0.100000E-10
 Iteration #         22
 delta_qm =   0.334033E-05 delta_en =   0.378801E-08 tol =   0.100000E-10
 Iteration #         23
 delta_qm =   0.259020E-05 delta_en =   0.293735E-08 tol =   0.100000E-10
 Iteration #         24
 delta_qm =   0.199702E-05 delta_en =   0.226467E-08 tol =   0.100000E-10
 Iteration #         25
 delta_qm =   0.153327E-05 delta_en =   0.173876E-08 tol =   0.100000E-10
 Iteration #         26
 delta_qm =   0.117477E-05 delta_en =   0.133222E-08 tol =   0.100000E-10
 Iteration #         27
 delta_qm =   0.899608E-06 delta_en =   0.102018E-08 tol =   0.100000E-10
 Iteration #         28
 delta_qm =   0.689119E-06 delta_en =   0.781477E-09 tol =   0.100000E-10
 Iteration #         29
 delta_qm =   0.528146E-06 delta_en =   0.598930E-09 tol =   0.100000E-10
 Iteration #         30
 delta_qm =   0.404879E-06 delta_en =   0.459142E-09 tol =   0.100000E-10
 Iteration #         31
 delta_qm =   0.310480E-06 delta_en =   0.352091E-09 tol =   0.100000E-10
 Iteration #         32
 delta_qm =   0.238294E-06 delta_en =   0.270231E-09 tol =   0.100000E-10
 Iteration #         33
 delta_qm =   0.183162E-06 delta_en =   0.207709E-09 tol =   0.100000E-10
 Iteration #         34
 delta_qm =   0.141047E-06 delta_en =   0.159950E-09 tol =   0.100000E-10
 Iteration #         35
 delta_qm =   0.108794E-06 delta_en =   0.123374E-09 tol =   0.100000E-10
 Iteration #         36
 delta_qm =   0.839740E-07 delta_en =   0.952284E-10 tol =   0.100000E-10
 Iteration #         37
 delta_qm =   0.648038E-07 delta_en =   0.734890E-10 tol =   0.100000E-10
 Iteration #         38
 delta_qm =   0.500037E-07 delta_en =   0.567053E-10 tol =   0.100000E-10
 Iteration #         39
 delta_qm =   0.386108E-07 delta_en =   0.437856E-10 tol =   0.100000E-10
 Iteration #         40
 delta_qm =   0.298499E-07 delta_en =   0.338505E-10 tol =   0.100000E-10
 Iteration #         41
 delta_qm =   0.230953E-07 delta_en =   0.261906E-10 tol =   0.100000E-10
 Iteration #         42
 delta_qm =   0.178663E-07 delta_en =   0.202608E-10 tol =   0.100000E-10
 Iteration #         43
 delta_qm =   0.138086E-07 delta_en =   0.156593E-10 tol =   0.100000E-10
 Iteration #         44
 delta_qm =   0.106600E-07 delta_en =   0.120886E-10 tol =   0.100000E-10
 Iteration #         45
 delta_qm =   0.822000E-08 delta_en =   0.932167E-11 tol =   0.100000E-10
 Charges are converged, EXIT

%%%% DENSITY %%%%%%%%%%%%%%%%%%%%%%%%%%%%%%%%%%%%%%%%%%%%%%%%%%%%%%%%%%%%%%%%%%%
 density label              = velectrostatic                                                                  
 integral of density        =     -1421.999760    

%%%% CHARGES %%%%%%%%%%%%%%%%%%%%%%%%%%%%%%%%%%%%%%%%%%%%%%%%%%%%%%%%%%%%%%%%%%%
 total number of charges    =         99
 total charge               =     -1.0000000

%%%% DENSITY %%%%%%%%%%%%%%%%%%%%%%%%%%%%%%%%%%%%%%%%%%%%%%%%%%%%%%%%%%%%%%%%%%%
 density label              = vsoftcavity                                                                     
 integral of density        =      387.5640884    

%%%% ELECTRONS %%%%%%%%%%%%%%%%%%%%%%%%%%%%%%%%%%%%%%%%%%%%%%%%%%%%%%%%%%%%%%%%%
 number of electrons        =         89
 total electronic charge    =     89.0000000
 number of spin components  =  1

%%%% BOUNDARY %%%%%%%%%%%%%%%%%%%%%%%%%%%%%%%%%%%%%%%%%%%%%%%%%%%%%%%%%%%%%%%%%%
 boundary label             = solvent              
 boundary mode              = full                 
 boundary is built as a function of a smooth density
 function type              =  1 
 using the optimal SCCS function with parameters 
 rhomax                     =      0.0050000 
 rhomin                     =      0.0001000 
 volume of the QM region    =   1383.2210756 
 surface of the QM region   =    306.1297097 

%%%% DIELECTRIC %%%%%%%%%%%%%%%%%%%%%%%%%%%%%%%%%%%%%%%%%%%%%%%%%%%%%%%%%%%%%%%%%
 dielectric build on homogeneous background
 environment bulk permitt.  =    100.0000000 
 dielectric flags
 need gradient              =  F 
 need factor depend. sqrt   =  F 
 total dielectric charge    =      0.9900794

%%%% DENSITY %%%%%%%%%%%%%%%%%%%%%%%%%%%%%%%%%%%%%%%%%%%%%%%%%%%%%%%%%%%%%%%%%%%
 density label              = vreference                                                                      
 integral of density        =     0.2078134918E-11

%%%% COMPUTE ELECTROSTATIC POTENTIAL %%%%%%%%%%%%%%%%%%%%%%%%%%%%%%%%%%%%%%%%%%%
 Starting from polarization: rhoiter =      1.303020 jellium =      0.000000
 Iteration #          1
 delta_qm =   0.596305E-03 delta_en =   0.676223E-06 tol =   0.100000E-10
 Iteration #          2
 delta_qm =   0.392767E-03 delta_en =   0.445406E-06 tol =   0.100000E-10
 Iteration #          3
 delta_qm =   0.254192E-03 delta_en =   0.288260E-06 tol =   0.100000E-10
 Iteration #          4
 delta_qm =   0.188142E-03 delta_en =   0.213357E-06 tol =   0.100000E-10
 Iteration #          5
 delta_qm =   0.114474E-03 delta_en =   0.129816E-06 tol =   0.100000E-10
 Iteration #          6
 delta_qm =   0.901112E-04 delta_en =   0.102188E-06 tol =   0.100000E-10
 Iteration #          7
 delta_qm =   0.666095E-04 delta_en =   0.755367E-07 tol =   0.100000E-10
 Iteration #          8
 delta_qm =   0.416054E-04 delta_en =   0.471814E-07 tol =   0.100000E-10
 Iteration #          9
 delta_qm =   0.310283E-04 delta_en =   0.351868E-07 tol =   0.100000E-10
 Iteration #         10
 delta_qm =   0.248396E-04 delta_en =   0.281686E-07 tol =   0.100000E-10
 Iteration #         11
 delta_qm =   0.165871E-04 delta_en =   0.188101E-07 tol =   0.100000E-10
 Iteration #         12
 delta_qm =   0.124598E-04 delta_en =   0.141297E-07 tol =   0.100000E-10
 Iteration #         13
 delta_qm =   0.114236E-04 delta_en =   0.129546E-07 tol =   0.100000E-10
 Iteration #         14
 delta_qm =   0.926070E-05 delta_en =   0.105018E-07 tol =   0.100000E-10
 Iteration #         15
 delta_qm =   0.716872E-05 delta_en =   0.812950E-08 tol =   0.100000E-10
 Iteration #         16
 delta_qm =   0.601073E-05 delta_en =   0.681631E-08 tol =   0.100000E-10
 Iteration #         17
 delta_qm =   0.496997E-05 delta_en =   0.563606E-08 tol =   0.100000E-10
 Iteration #         18
 delta_qm =   0.406671E-05 delta_en =   0.461174E-08 tol =   0.100000E-10
 Iteration #         19
 delta_qm =   0.350173E-05 delta_en =   0.397104E-08 tol =   0.100000E-10
 Iteration #         20
 delta_qm =   0.297168E-05 delta_en =   0.336995E-08 tol =   0.100000E-10
 Iteration #         21
 delta_qm =   0.238786E-05 delta_en =   0.270788E-08 tol =   0.100000E-10
 Iteration #         22
 delta_qm =   0.188553E-05 delta_en =   0.213823E-08 tol =   0.100000E-10
 Iteration #         23
 delta_qm =   0.148813E-05 delta_en =   0.168757E-08 tol =   0.100000E-10
 Iteration #         24
 delta_qm =   0.116103E-05 delta_en =   0.131663E-08 tol =   0.100000E-10
 Iteration #         25
 delta_qm =   0.907336E-06 delta_en =   0.102894E-08 tol =   0.100000E-10
 Iteration #         26
 delta_qm =   0.713239E-06 delta_en =   0.808829E-09 tol =   0.100000E-10
 Iteration #         27
 delta_qm =   0.550852E-06 delta_en =   0.624679E-09 tol =   0.100000E-10
 Iteration #         28
 delta_qm =   0.416251E-06 delta_en =   0.472038E-09 tol =   0.100000E-10
 Iteration #         29
 delta_qm =   0.312629E-06 delta_en =   0.354529E-09 tol =   0.100000E-10
 Iteration #         30
 delta_qm =   0.233949E-06 delta_en =   0.265303E-09 tol =   0.100000E-10
 Iteration #         31
 delta_qm =   0.174458E-06 delta_en =   0.197839E-09 tol =   0.100000E-10
 Iteration #         32
 delta_qm =   0.130971E-06 delta_en =   0.148524E-09 tol =   0.100000E-10
 Iteration #         33
 delta_qm =   0.985222E-07 delta_en =   0.111726E-09 tol =   0.100000E-10
 Iteration #         34
 delta_qm =   0.732217E-07 delta_en =   0.830351E-10 tol =   0.100000E-10
 Iteration #         35
 delta_qm =   0.539531E-07 delta_en =   0.611841E-10 tol =   0.100000E-10
 Iteration #         36
 delta_qm =   0.397785E-07 delta_en =   0.451098E-10 tol =   0.100000E-10
 Iteration #         37
 delta_qm =   0.293286E-07 delta_en =   0.332593E-10 tol =   0.100000E-10
 Iteration #         38
 delta_qm =   0.217065E-07 delta_en =   0.246157E-10 tol =   0.100000E-10
 Iteration #         39
 delta_qm =   0.161989E-07 delta_en =   0.183699E-10 tol =   0.100000E-10
 Iteration #         40
 delta_qm =   0.120676E-07 delta_en =   0.136849E-10 tol =   0.100000E-10
 Iteration #         41
 delta_qm =   0.891529E-08 delta_en =   0.101101E-10 tol =   0.100000E-10
 Iteration #         42
 delta_qm =   0.658910E-08 delta_en =   0.747219E-11 tol =   0.100000E-10
 Charges are converged, EXIT

%%%% DENSITY %%%%%%%%%%%%%%%%%%%%%%%%%%%%%%%%%%%%%%%%%%%%%%%%%%%%%%%%%%%%%%%%%%%
 density label              = velectrostatic                                                                  
 integral of density        =     -1505.600823    

%%%% CHARGES %%%%%%%%%%%%%%%%%%%%%%%%%%%%%%%%%%%%%%%%%%%%%%%%%%%%%%%%%%%%%%%%%%%
 total number of charges    =         99
 total charge               =     -1.0000000

%%%% DENSITY %%%%%%%%%%%%%%%%%%%%%%%%%%%%%%%%%%%%%%%%%%%%%%%%%%%%%%%%%%%%%%%%%%%
 density label              = vsoftcavity                                                                     
 integral of density        =      260.5525589    

%%%% ELECTRONS %%%%%%%%%%%%%%%%%%%%%%%%%%%%%%%%%%%%%%%%%%%%%%%%%%%%%%%%%%%%%%%%%
 number of electrons        =         89
 total electronic charge    =     89.0000000
 number of spin components  =  1

%%%% BOUNDARY %%%%%%%%%%%%%%%%%%%%%%%%%%%%%%%%%%%%%%%%%%%%%%%%%%%%%%%%%%%%%%%%%%
 boundary label             = solvent              
 boundary mode              = full                 
 boundary is built as a function of a smooth density
 function type              =  1 
 using the optimal SCCS function with parameters 
 rhomax                     =      0.0050000 
 rhomin                     =      0.0001000 
 volume of the QM region    =   1393.9030816 
 surface of the QM region   =    319.6678440 

%%%% DIELECTRIC %%%%%%%%%%%%%%%%%%%%%%%%%%%%%%%%%%%%%%%%%%%%%%%%%%%%%%%%%%%%%%%%%
 dielectric build on homogeneous background
 environment bulk permitt.  =    100.0000000 
 dielectric flags
 need gradient              =  F 
 need factor depend. sqrt   =  F 
 total dielectric charge    =      0.9900816

%%%% DENSITY %%%%%%%%%%%%%%%%%%%%%%%%%%%%%%%%%%%%%%%%%%%%%%%%%%%%%%%%%%%%%%%%%%%
 density label              = vreference                                                                      
 integral of density        =     0.1677562603E-11

%%%% COMPUTE ELECTROSTATIC POTENTIAL %%%%%%%%%%%%%%%%%%%%%%%%%%%%%%%%%%%%%%%%%%%
 Starting from polarization: rhoiter =      1.358000 jellium =      0.000000
 Iteration #          1
 delta_qm =   0.421298E-03 delta_en =   0.477761E-06 tol =   0.100000E-10
 Iteration #          2
 delta_qm =   0.507270E-03 delta_en =   0.575256E-06 tol =   0.100000E-10
 Iteration #          3
 delta_qm =   0.285439E-03 delta_en =   0.323695E-06 tol =   0.100000E-10
 Iteration #          4
 delta_qm =   0.193323E-03 delta_en =   0.219232E-06 tol =   0.100000E-10
 Iteration #          5
 delta_qm =   0.115377E-03 delta_en =   0.130840E-06 tol =   0.100000E-10
 Iteration #          6
 delta_qm =   0.959591E-04 delta_en =   0.108820E-06 tol =   0.100000E-10
 Iteration #          7
 delta_qm =   0.661904E-04 delta_en =   0.750615E-07 tol =   0.100000E-10
 Iteration #          8
 delta_qm =   0.431272E-04 delta_en =   0.489072E-07 tol =   0.100000E-10
 Iteration #          9
 delta_qm =   0.346893E-04 delta_en =   0.393385E-07 tol =   0.100000E-10
 Iteration #         10
 delta_qm =   0.264966E-04 delta_en =   0.300477E-07 tol =   0.100000E-10
 Iteration #         11
 delta_qm =   0.193469E-04 delta_en =   0.219398E-07 tol =   0.100000E-10
 Iteration #         12
 delta_qm =   0.171733E-04 delta_en =   0.194749E-07 tol =   0.100000E-10
 Iteration #         13
 delta_qm =   0.152697E-04 delta_en =   0.173162E-07 tol =   0.100000E-10
 Iteration #         14
 delta_qm =   0.124724E-04 delta_en =   0.141440E-07 tol =   0.100000E-10
 Iteration #         15
 delta_qm =   0.103970E-04 delta_en =   0.117904E-07 tol =   0.100000E-10
 Iteration #         16
 delta_qm =   0.887589E-05 delta_en =   0.100655E-07 tol =   0.100000E-10
 Iteration #         17
 delta_qm =   0.748707E-05 delta_en =   0.849051E-08 tol =   0.100000E-10
 Iteration #         18
 delta_qm =   0.640486E-05 delta_en =   0.726326E-08 tol =   0.100000E-10
 Iteration #         19
 delta_qm =   0.547694E-05 delta_en =   0.621098E-08 tol =   0.100000E-10
 Iteration #         20
 delta_qm =   0.450989E-05 delta_en =   0.511432E-08 tol =   0.100000E-10
 Iteration #         21
 delta_qm =   0.360466E-05 delta_en =   0.408777E-08 tol =   0.100000E-10
 Iteration #         22
 delta_qm =   0.285858E-05 delta_en =   0.324170E-08 tol =   0.100000E-10
 Iteration #         23
 delta_qm =   0.225107E-05 delta_en =   0.255277E-08 tol =   0.100000E-10
 Iteration #         24
 delta_qm =   0.176196E-05 delta_en =   0.199811E-08 tol =   0.100000E-10
 Iteration #         25
 delta_qm =   0.137817E-05 delta_en =   0.156287E-08 tol =   0.100000E-10
 Iteration #         26
 delta_qm =   0.106829E-05 delta_en =   0.121146E-08 tol =   0.100000E-10
 Iteration #         27
 delta_qm =   0.814696E-06 delta_en =   0.923884E-09 tol =   0.100000E-10
 Iteration #         28
 delta_qm =   0.616007E-06 delta_en =   0.698567E-09 tol =   0.100000E-10
 Iteration #         29
 delta_qm =   0.464446E-06 delta_en =   0.526693E-09 tol =   0.100000E-10
 Iteration #         30
 delta_qm =   0.348204E-06 delta_en =   0.394872E-09 tol =   0.100000E-10
 Iteration #         31
 delta_qm =   0.260276E-06 delta_en =   0.295159E-09 tol =   0.100000E-10
 Iteration #         32
 delta_qm =   0.194700E-06 delta_en =   0.220795E-09 tol =   0.100000E-10
 Iteration #         33
 delta_qm =   0.144857E-06 delta_en =   0.164271E-09 tol =   0.100000E-10
 Iteration #         34
 delta_qm =   0.106593E-06 delta_en =   0.120879E-09 tol =   0.100000E-10
 Iteration #         35
 delta_qm =   0.779097E-07 delta_en =   0.883514E-10 tol =   0.100000E-10
 Iteration #         36
 delta_qm =   0.570009E-07 delta_en =   0.646404E-10 tol =   0.100000E-10
 Iteration #         37
 delta_qm =   0.420074E-07 delta_en =   0.476373E-10 tol =   0.100000E-10
 Iteration #         38
 delta_qm =   0.312029E-07 delta_en =   0.353848E-10 tol =   0.100000E-10
 Iteration #         39
 delta_qm =   0.231368E-07 delta_en =   0.262377E-10 tol =   0.100000E-10
 Iteration #         40
 delta_qm =   0.169962E-07 delta_en =   0.192740E-10 tol =   0.100000E-10
 Iteration #         41
 delta_qm =   0.124580E-07 delta_en =   0.141277E-10 tol =   0.100000E-10
 Iteration #         42
 delta_qm =   0.919224E-08 delta_en =   0.104242E-10 tol =   0.100000E-10
 Iteration #         43
 delta_qm =   0.679440E-08 delta_en =   0.770500E-11 tol =   0.100000E-10
 Charges are converged, EXIT

%%%% DENSITY %%%%%%%%%%%%%%%%%%%%%%%%%%%%%%%%%%%%%%%%%%%%%%%%%%%%%%%%%%%%%%%%%%%
 density label              = velectrostatic                                                                  
 integral of density        =     -1507.445997    

%%%% CHARGES %%%%%%%%%%%%%%%%%%%%%%%%%%%%%%%%%%%%%%%%%%%%%%%%%%%%%%%%%%%%%%%%%%%
 total number of charges    =         99
 total charge               =     -1.0000000

%%%% DENSITY %%%%%%%%%%%%%%%%%%%%%%%%%%%%%%%%%%%%%%%%%%%%%%%%%%%%%%%%%%%%%%%%%%%
 density label              = vsoftcavity                                                                     
 integral of density        =      1255.917497    

%%%% ELECTRONS %%%%%%%%%%%%%%%%%%%%%%%%%%%%%%%%%%%%%%%%%%%%%%%%%%%%%%%%%%%%%%%%%
 number of electrons        =         89
 total electronic charge    =     89.0000000
 number of spin components  =  1

%%%% BOUNDARY %%%%%%%%%%%%%%%%%%%%%%%%%%%%%%%%%%%%%%%%%%%%%%%%%%%%%%%%%%%%%%%%%%
 boundary label             = solvent              
 boundary mode              = full                 
 boundary is built as a function of a smooth density
 function type              =  1 
 using the optimal SCCS function with parameters 
 rhomax                     =      0.0050000 
 rhomin                     =      0.0001000 
 volume of the QM region    =   1403.2750527 
 surface of the QM region   =    350.7215202 

%%%% DIELECTRIC %%%%%%%%%%%%%%%%%%%%%%%%%%%%%%%%%%%%%%%%%%%%%%%%%%%%%%%%%%%%%%%%%
 dielectric build on homogeneous background
 environment bulk permitt.  =    100.0000000 
 dielectric flags
 need gradient              =  F 
 need factor depend. sqrt   =  F 
 total dielectric charge    =      0.9901080

%%%% DENSITY %%%%%%%%%%%%%%%%%%%%%%%%%%%%%%%%%%%%%%%%%%%%%%%%%%%%%%%%%%%%%%%%%%%
 density label              = vreference                                                                      
 integral of density        =    -0.9020120345E-11

%%%% COMPUTE ELECTROSTATIC POTENTIAL %%%%%%%%%%%%%%%%%%%%%%%%%%%%%%%%%%%%%%%%%%%
 Starting from polarization: rhoiter =      1.403044 jellium =      0.000000
 Iteration #          1
 delta_qm =   0.160054E-03 delta_en =   0.181505E-06 tol =   0.100000E-10
 Iteration #          2
 delta_qm =   0.144108E-03 delta_en =   0.163422E-06 tol =   0.100000E-10
 Iteration #          3
 delta_qm =   0.743382E-04 delta_en =   0.843013E-07 tol =   0.100000E-10
 Iteration #          4
 delta_qm =   0.510127E-04 delta_en =   0.578495E-07 tol =   0.100000E-10
 Iteration #          5
 delta_qm =   0.299190E-04 delta_en =   0.339289E-07 tol =   0.100000E-10
 Iteration #          6
 delta_qm =   0.236652E-04 delta_en =   0.268369E-07 tol =   0.100000E-10
 Iteration #          7
 delta_qm =   0.167197E-04 delta_en =   0.189606E-07 tol =   0.100000E-10
 Iteration #          8
 delta_qm =   0.111948E-04 delta_en =   0.126951E-07 tol =   0.100000E-10
 Iteration #          9
 delta_qm =   0.868037E-05 delta_en =   0.984374E-08 tol =   0.100000E-10
 Iteration #         10
 delta_qm =   0.660491E-05 delta_en =   0.749012E-08 tol =   0.100000E-10
 Iteration #         11
 delta_qm =   0.479066E-05 delta_en =   0.543272E-08 tol =   0.100000E-10
 Iteration #         12
 delta_qm =   0.395657E-05 delta_en =   0.448684E-08 tol =   0.100000E-10
 Iteration #         13
 delta_qm =   0.333490E-05 delta_en =   0.378185E-08 tol =   0.100000E-10
 Iteration #         14
 delta_qm =   0.261871E-05 delta_en =   0.296967E-08 tol =   0.100000E-10
 Iteration #         15
 delta_qm =   0.209187E-05 delta_en =   0.237223E-08 tol =   0.100000E-10
 Iteration #         16
 delta_qm =   0.171337E-05 delta_en =   0.194300E-08 tol =   0.100000E-10
 Iteration #         17
 delta_qm =   0.138368E-05 delta_en =   0.156913E-08 tol =   0.100000E-10
 Iteration #         18
 delta_qm =   0.114738E-05 delta_en =   0.130116E-08 tol =   0.100000E-10
 Iteration #         19
 delta_qm =   0.965988E-06 delta_en =   0.109545E-08 tol =   0.100000E-10
 Iteration #         20
 delta_qm =   0.780684E-06 delta_en =   0.885313E-09 tol =   0.100000E-10
 Iteration #         21
 delta_qm =   0.610915E-06 delta_en =   0.692792E-09 tol =   0.100000E-10
 Iteration #         22
 delta_qm =   0.477687E-06 delta_en =   0.541708E-09 tol =   0.100000E-10
 Iteration #         23
 delta_qm =   0.370976E-06 delta_en =   0.420695E-09 tol =   0.100000E-10
 Iteration #         24
 delta_qm =   0.285501E-06 delta_en =   0.323765E-09 tol =   0.100000E-10
 Iteration #         25
 delta_qm =   0.221119E-06 delta_en =   0.250754E-09 tol =   0.100000E-10
 Iteration #         26
 delta_qm =   0.170496E-06 delta_en =   0.193346E-09 tol =   0.100000E-10
 Iteration #         27
 delta_qm =   0.128658E-06 delta_en =   0.145901E-09 tol =   0.100000E-10
 Iteration #         28
 delta_qm =   0.961613E-07 delta_en =   0.109049E-09 tol =   0.100000E-10
 Iteration #         29
 delta_qm =   0.720661E-07 delta_en =   0.817246E-10 tol =   0.100000E-10
 Iteration #         30
 delta_qm =   0.537274E-07 delta_en =   0.609281E-10 tol =   0.100000E-10
 Iteration #         31
 delta_qm =   0.398881E-07 delta_en =   0.452340E-10 tol =   0.100000E-10
 Iteration #         32
 delta_qm =   0.297862E-07 delta_en =   0.337782E-10 tol =   0.100000E-10
 Iteration #         33
 delta_qm =   0.222144E-07 delta_en =   0.251917E-10 tol =   0.100000E-10
 Iteration #         34
 delta_qm =   0.163641E-07 delta_en =   0.185573E-10 tol =   0.100000E-10
 Iteration #         35
 delta_qm =   0.119619E-07 delta_en =   0.135650E-10 tol =   0.100000E-10
 Iteration #         36
 delta_qm =   0.878034E-08 delta_en =   0.995711E-11 tol =   0.100000E-10
 Charges are converged, EXIT

%%%% DENSITY %%%%%%%%%%%%%%%%%%%%%%%%%%%%%%%%%%%%%%%%%%%%%%%%%%%%%%%%%%%%%%%%%%%
 density label              = velectrostatic                                                                  
 integral of density        =     -1505.951578    

%%%% CHARGES %%%%%%%%%%%%%%%%%%%%%%%%%%%%%%%%%%%%%%%%%%%%%%%%%%%%%%%%%%%%%%%%%%%
 total number of charges    =         99
 total charge               =     -1.0000000

%%%% DENSITY %%%%%%%%%%%%%%%%%%%%%%%%%%%%%%%%%%%%%%%%%%%%%%%%%%%%%%%%%%%%%%%%%%%
 density label              = vsoftcavity                                                                     
 integral of density        =      1667.680224    

%%%% ELECTRONS %%%%%%%%%%%%%%%%%%%%%%%%%%%%%%%%%%%%%%%%%%%%%%%%%%%%%%%%%%%%%%%%%
 number of electrons        =         89
 total electronic charge    =     89.0000000
 number of spin components  =  1

%%%% BOUNDARY %%%%%%%%%%%%%%%%%%%%%%%%%%%%%%%%%%%%%%%%%%%%%%%%%%%%%%%%%%%%%%%%%%
 boundary label             = solvent              
 boundary mode              = full                 
 boundary is built as a function of a smooth density
 function type              =  1 
 using the optimal SCCS function with parameters 
 rhomax                     =      0.0050000 
 rhomin                     =      0.0001000 
 volume of the QM region    =   1424.6541429 
 surface of the QM region   =    373.3155804 

%%%% DIELECTRIC %%%%%%%%%%%%%%%%%%%%%%%%%%%%%%%%%%%%%%%%%%%%%%%%%%%%%%%%%%%%%%%%%
 dielectric build on homogeneous background
 environment bulk permitt.  =    100.0000000 
 dielectric flags
 need gradient              =  F 
 need factor depend. sqrt   =  F 
 total dielectric charge    =      0.9901205

%%%% DENSITY %%%%%%%%%%%%%%%%%%%%%%%%%%%%%%%%%%%%%%%%%%%%%%%%%%%%%%%%%%%%%%%%%%%
 density label              = vreference                                                                      
 integral of density        =     0.1988379278E-12

%%%% COMPUTE ELECTROSTATIC POTENTIAL %%%%%%%%%%%%%%%%%%%%%%%%%%%%%%%%%%%%%%%%%%%
 Starting from polarization: rhoiter =      1.419178 jellium =      0.000000
 Iteration #          1
 delta_qm =   0.270303E-03 delta_en =   0.306529E-06 tol =   0.100000E-10
 Iteration #          2
 delta_qm =   0.365113E-03 delta_en =   0.414047E-06 tol =   0.100000E-10
 Iteration #          3
 delta_qm =   0.201447E-03 delta_en =   0.228446E-06 tol =   0.100000E-10
 Iteration #          4
 delta_qm =   0.127576E-03 delta_en =   0.144674E-06 tol =   0.100000E-10
 Iteration #          5
 delta_qm =   0.751412E-04 delta_en =   0.852119E-07 tol =   0.100000E-10
 Iteration #          6
 delta_qm =   0.640864E-04 delta_en =   0.726755E-07 tol =   0.100000E-10
 Iteration #          7
 delta_qm =   0.431629E-04 delta_en =   0.489478E-07 tol =   0.100000E-10
 Iteration #          8
 delta_qm =   0.293295E-04 delta_en =   0.332603E-07 tol =   0.100000E-10
 Iteration #          9
 delta_qm =   0.252922E-04 delta_en =   0.286819E-07 tol =   0.100000E-10
 Iteration #         10
 delta_qm =   0.212479E-04 delta_en =   0.240956E-07 tol =   0.100000E-10
 Iteration #         11
 delta_qm =   0.188402E-04 delta_en =   0.213653E-07 tol =   0.100000E-10
 Iteration #         12
 delta_qm =   0.183984E-04 delta_en =   0.208643E-07 tol =   0.100000E-10
 Iteration #         13
 delta_qm =   0.169824E-04 delta_en =   0.192585E-07 tol =   0.100000E-10
 Iteration #         14
 delta_qm =   0.147112E-04 delta_en =   0.166828E-07 tol =   0.100000E-10
 Iteration #         15
 delta_qm =   0.126226E-04 delta_en =   0.143143E-07 tol =   0.100000E-10
 Iteration #         16
 delta_qm =   0.107761E-04 delta_en =   0.122204E-07 tol =   0.100000E-10
 Iteration #         17
 delta_qm =   0.909555E-05 delta_en =   0.103146E-07 tol =   0.100000E-10
 Iteration #         18
 delta_qm =   0.765402E-05 delta_en =   0.867983E-08 tol =   0.100000E-10
 Iteration #         19
 delta_qm =   0.636653E-05 delta_en =   0.721979E-08 tol =   0.100000E-10
 Iteration #         20
 delta_qm =   0.516347E-05 delta_en =   0.585550E-08 tol =   0.100000E-10
 Iteration #         21
 delta_qm =   0.410366E-05 delta_en =   0.465364E-08 tol =   0.100000E-10
 Iteration #         22
 delta_qm =   0.322866E-05 delta_en =   0.366137E-08 tol =   0.100000E-10
 Iteration #         23
 delta_qm =   0.252054E-05 delta_en =   0.285835E-08 tol =   0.100000E-10
 Iteration #         24
 delta_qm =   0.195680E-05 delta_en =   0.221906E-08 tol =   0.100000E-10
 Iteration #         25
 delta_qm =   0.151390E-05 delta_en =   0.171679E-08 tol =   0.100000E-10
 Iteration #         26
 delta_qm =   0.116193E-05 delta_en =   0.131766E-08 tol =   0.100000E-10
 Iteration #         27
 delta_qm =   0.881800E-06 delta_en =   0.999981E-09 tol =   0.100000E-10
 Iteration #         28
 delta_qm =   0.664361E-06 delta_en =   0.753401E-09 tol =   0.100000E-10
 Iteration #         29
 delta_qm =   0.498833E-06 delta_en =   0.565688E-09 tol =   0.100000E-10
 Iteration #         30
 delta_qm =   0.373554E-06 delta_en =   0.423618E-09 tol =   0.100000E-10
 Iteration #         31
 delta_qm =   0.279546E-06 delta_en =   0.317012E-09 tol =   0.100000E-10
 Iteration #         32
 delta_qm =   0.209147E-06 delta_en =   0.237178E-09 tol =   0.100000E-10
 Iteration #         33
 delta_qm =   0.155895E-06 delta_en =   0.176788E-09 tol =   0.100000E-10
 Iteration #         34
 delta_qm =   0.115651E-06 delta_en =   0.131150E-09 tol =   0.100000E-10
 Iteration #         35
 delta_qm =   0.857104E-07 delta_en =   0.971976E-10 tol =   0.100000E-10
 Iteration #         36
 delta_qm =   0.636995E-07 delta_en =   0.722367E-10 tol =   0.100000E-10
 Iteration #         37
 delta_qm =   0.475769E-07 delta_en =   0.539533E-10 tol =   0.100000E-10
 Iteration #         38
 delta_qm =   0.357141E-07 delta_en =   0.405007E-10 tol =   0.100000E-10
 Iteration #         39
 delta_qm =   0.268490E-07 delta_en =   0.304474E-10 tol =   0.100000E-10
 Iteration #         40
 delta_qm =   0.201533E-07 delta_en =   0.228543E-10 tol =   0.100000E-10
 Iteration #         41
 delta_qm =   0.151289E-07 delta_en =   0.171565E-10 tol =   0.100000E-10
 Iteration #         42
 delta_qm =   0.113862E-07 delta_en =   0.129122E-10 tol =   0.100000E-10
 Iteration #         43
 delta_qm =   0.859192E-08 delta_en =   0.974343E-11 tol =   0.100000E-10
 Charges are converged, EXIT

%%%% DENSITY %%%%%%%%%%%%%%%%%%%%%%%%%%%%%%%%%%%%%%%%%%%%%%%%%%%%%%%%%%%%%%%%%%%
 density label              = velectrostatic                                                                  
 integral of density        =     -1497.326354    

%%%% CHARGES %%%%%%%%%%%%%%%%%%%%%%%%%%%%%%%%%%%%%%%%%%%%%%%%%%%%%%%%%%%%%%%%%%%
 total number of charges    =         99
 total charge               =     -1.0000000

%%%% DENSITY %%%%%%%%%%%%%%%%%%%%%%%%%%%%%%%%%%%%%%%%%%%%%%%%%%%%%%%%%%%%%%%%%%%
 density label              = vsoftcavity                                                                     
 integral of density        =      2187.267063    

%%%% ELECTRONS %%%%%%%%%%%%%%%%%%%%%%%%%%%%%%%%%%%%%%%%%%%%%%%%%%%%%%%%%%%%%%%%%
 number of electrons        =         89
 total electronic charge    =     89.0000000
 number of spin components  =  1

%%%% BOUNDARY %%%%%%%%%%%%%%%%%%%%%%%%%%%%%%%%%%%%%%%%%%%%%%%%%%%%%%%%%%%%%%%%%%
 boundary label             = solvent              
 boundary mode              = full                 
 boundary is built as a function of a smooth density
 function type              =  1 
 using the optimal SCCS function with parameters 
 rhomax                     =      0.0050000 
 rhomin                     =      0.0001000 
 volume of the QM region    =   1444.1016844 
 surface of the QM region   =    370.4621827 

%%%% DIELECTRIC %%%%%%%%%%%%%%%%%%%%%%%%%%%%%%%%%%%%%%%%%%%%%%%%%%%%%%%%%%%%%%%%%
 dielectric build on homogeneous background
 environment bulk permitt.  =    100.0000000 
 dielectric flags
 need gradient              =  F 
 need factor depend. sqrt   =  F 
 total dielectric charge    =      0.9901893

%%%% DENSITY %%%%%%%%%%%%%%%%%%%%%%%%%%%%%%%%%%%%%%%%%%%%%%%%%%%%%%%%%%%%%%%%%%%
 density label              = vreference                                                                      
 integral of density        =    -0.1075904916E-10

%%%% COMPUTE ELECTROSTATIC POTENTIAL %%%%%%%%%%%%%%%%%%%%%%%%%%%%%%%%%%%%%%%%%%%
 Starting from polarization: rhoiter =      1.452368 jellium =      0.000000
 Iteration #          1
 delta_qm =   0.246074E-03 delta_en =   0.279053E-06 tol =   0.100000E-10
 Iteration #          2
 delta_qm =   0.330983E-03 delta_en =   0.375343E-06 tol =   0.100000E-10
 Iteration #          3
 delta_qm =   0.200205E-03 delta_en =   0.227037E-06 tol =   0.100000E-10
 Iteration #          4
 delta_qm =   0.126566E-03 delta_en =   0.143528E-06 tol =   0.100000E-10
 Iteration #          5
 delta_qm =   0.778536E-04 delta_en =   0.882878E-07 tol =   0.100000E-10
 Iteration #          6
 delta_qm =   0.660490E-04 delta_en =   0.749011E-07 tol =   0.100000E-10
 Iteration #          7
 delta_qm =   0.453091E-04 delta_en =   0.513815E-07 tol =   0.100000E-10
 Iteration #          8
 delta_qm =   0.321169E-04 delta_en =   0.364213E-07 tol =   0.100000E-10
 Iteration #          9
 delta_qm =   0.284775E-04 delta_en =   0.322942E-07 tol =   0.100000E-10
 Iteration #         10
 delta_qm =   0.251108E-04 delta_en =   0.284762E-07 tol =   0.100000E-10
 Iteration #         11
 delta_qm =   0.232176E-04 delta_en =   0.263293E-07 tol =   0.100000E-10
 Iteration #         12
 delta_qm =   0.226943E-04 delta_en =   0.257358E-07 tol =   0.100000E-10
 Iteration #         13
 delta_qm =   0.209973E-04 delta_en =   0.238114E-07 tol =   0.100000E-10
 Iteration #         14
 delta_qm =   0.183400E-04 delta_en =   0.207980E-07 tol =   0.100000E-10
 Iteration #         15
 delta_qm =   0.157620E-04 delta_en =   0.178745E-07 tol =   0.100000E-10
 Iteration #         16
 delta_qm =   0.134257E-04 delta_en =   0.152251E-07 tol =   0.100000E-10
 Iteration #         17
 delta_qm =   0.113019E-04 delta_en =   0.128166E-07 tol =   0.100000E-10
 Iteration #         18
 delta_qm =   0.945628E-05 delta_en =   0.107236E-07 tol =   0.100000E-10
 Iteration #         19
 delta_qm =   0.781606E-05 delta_en =   0.886359E-08 tol =   0.100000E-10
 Iteration #         20
 delta_qm =   0.631860E-05 delta_en =   0.716544E-08 tol =   0.100000E-10
 Iteration #         21
 delta_qm =   0.501359E-05 delta_en =   0.568552E-08 tol =   0.100000E-10
 Iteration #         22
 delta_qm =   0.393643E-05 delta_en =   0.446400E-08 tol =   0.100000E-10
 Iteration #         23
 delta_qm =   0.306625E-05 delta_en =   0.347720E-08 tol =   0.100000E-10
 Iteration #         24
 delta_qm =   0.237438E-05 delta_en =   0.269261E-08 tol =   0.100000E-10
 Iteration #         25
 delta_qm =   0.183089E-05 delta_en =   0.207627E-08 tol =   0.100000E-10
 Iteration #         26
 delta_qm =   0.140117E-05 delta_en =   0.158896E-08 tol =   0.100000E-10
 Iteration #         27
 delta_qm =   0.106135E-05 delta_en =   0.120360E-08 tol =   0.100000E-10
 Iteration #         28
 delta_qm =   0.798034E-06 delta_en =   0.904989E-09 tol =   0.100000E-10
 Iteration #         29
 delta_qm =   0.597584E-06 delta_en =   0.677674E-09 tol =   0.100000E-10
 Iteration #         30
 delta_qm =   0.446124E-06 delta_en =   0.505915E-09 tol =   0.100000E-10
 Iteration #         31
 delta_qm =   0.332608E-06 delta_en =   0.377186E-09 tol =   0.100000E-10
 Iteration #         32
 delta_qm =   0.247730E-06 delta_en =   0.280931E-09 tol =   0.100000E-10
 Iteration #         33
 delta_qm =   0.183824E-06 delta_en =   0.208460E-09 tol =   0.100000E-10
 Iteration #         34
 delta_qm =   0.135796E-06 delta_en =   0.153996E-09 tol =   0.100000E-10
 Iteration #         35
 delta_qm =   0.100188E-06 delta_en =   0.113615E-09 tol =   0.100000E-10
 Iteration #         36
 delta_qm =   0.740505E-07 delta_en =   0.839749E-10 tol =   0.100000E-10
 Iteration #         37
 delta_qm =   0.549180E-07 delta_en =   0.622782E-10 tol =   0.100000E-10
 Iteration #         38
 delta_qm =   0.408754E-07 delta_en =   0.463536E-10 tol =   0.100000E-10
 Iteration #         39
 delta_qm =   0.304585E-07 delta_en =   0.345406E-10 tol =   0.100000E-10
 Iteration #         40
 delta_qm =   0.226686E-07 delta_en =   0.257068E-10 tol =   0.100000E-10
 Iteration #         41
 delta_qm =   0.168696E-07 delta_en =   0.191305E-10 tol =   0.100000E-10
 Iteration #         42
 delta_qm =   0.125784E-07 delta_en =   0.142642E-10 tol =   0.100000E-10
 Iteration #         43
 delta_qm =   0.940070E-08 delta_en =   0.106606E-10 tol =   0.100000E-10
 Iteration #         44
 delta_qm =   0.704710E-08 delta_en =   0.799158E-11 tol =   0.100000E-10
 Charges are converged, EXIT

%%%% DENSITY %%%%%%%%%%%%%%%%%%%%%%%%%%%%%%%%%%%%%%%%%%%%%%%%%%%%%%%%%%%%%%%%%%%
 density label              = velectrostatic                                                                  
 integral of density        =     -1496.316991    

%%%% CHARGES %%%%%%%%%%%%%%%%%%%%%%%%%%%%%%%%%%%%%%%%%%%%%%%%%%%%%%%%%%%%%%%%%%%
 total number of charges    =         99
 total charge               =     -1.0000000

%%%% DENSITY %%%%%%%%%%%%%%%%%%%%%%%%%%%%%%%%%%%%%%%%%%%%%%%%%%%%%%%%%%%%%%%%%%%
 density label              = vsoftcavity                                                                     
 integral of density        =      1922.338049    

%%%% ELECTRONS %%%%%%%%%%%%%%%%%%%%%%%%%%%%%%%%%%%%%%%%%%%%%%%%%%%%%%%%%%%%%%%%%
 number of electrons        =         89
 total electronic charge    =     89.0000000
 number of spin components  =  1

%%%% BOUNDARY %%%%%%%%%%%%%%%%%%%%%%%%%%%%%%%%%%%%%%%%%%%%%%%%%%%%%%%%%%%%%%%%%%
 boundary label             = solvent              
 boundary mode              = full                 
 boundary is built as a function of a smooth density
 function type              =  1 
 using the optimal SCCS function with parameters 
 rhomax                     =      0.0050000 
 rhomin                     =      0.0001000 
 volume of the QM region    =   1460.6159635 
 surface of the QM region   =    360.6702562 

%%%% DIELECTRIC %%%%%%%%%%%%%%%%%%%%%%%%%%%%%%%%%%%%%%%%%%%%%%%%%%%%%%%%%%%%%%%%%
 dielectric build on homogeneous background
 environment bulk permitt.  =    100.0000000 
 dielectric flags
 need gradient              =  F 
 need factor depend. sqrt   =  F 
 total dielectric charge    =      0.9903035

%%%% DENSITY %%%%%%%%%%%%%%%%%%%%%%%%%%%%%%%%%%%%%%%%%%%%%%%%%%%%%%%%%%%%%%%%%%%
 density label              = vreference                                                                      
 integral of density        =     0.7647869831E-11

%%%% COMPUTE ELECTROSTATIC POTENTIAL %%%%%%%%%%%%%%%%%%%%%%%%%%%%%%%%%%%%%%%%%%%
 Starting from polarization: rhoiter =      1.478473 jellium =      0.000000
 Iteration #          1
 delta_qm =   0.230642E-03 delta_en =   0.261553E-06 tol =   0.100000E-10
 Iteration #          2
 delta_qm =   0.289539E-03 delta_en =   0.328344E-06 tol =   0.100000E-10
 Iteration #          3
 delta_qm =   0.185219E-03 delta_en =   0.210042E-06 tol =   0.100000E-10
 Iteration #          4
 delta_qm =   0.116550E-03 delta_en =   0.132170E-06 tol =   0.100000E-10
 Iteration #          5
 delta_qm =   0.743025E-04 delta_en =   0.842608E-07 tol =   0.100000E-10
 Iteration #          6
 delta_qm =   0.624158E-04 delta_en =   0.707810E-07 tol =   0.100000E-10
 Iteration #          7
 delta_qm =   0.433420E-04 delta_en =   0.491508E-07 tol =   0.100000E-10
 Iteration #          8
 delta_qm =   0.312691E-04 delta_en =   0.354599E-07 tol =   0.100000E-10
 Iteration #          9
 delta_qm =   0.272430E-04 delta_en =   0.308942E-07 tol =   0.100000E-10
 Iteration #         10
 delta_qm =   0.236827E-04 delta_en =   0.268568E-07 tol =   0.100000E-10
 Iteration #         11
 delta_qm =   0.215511E-04 delta_en =   0.244394E-07 tol =   0.100000E-10
 Iteration #         12
 delta_qm =   0.206505E-04 delta_en =   0.234181E-07 tol =   0.100000E-10
 Iteration #         13
 delta_qm =   0.188016E-04 delta_en =   0.213215E-07 tol =   0.100000E-10
 Iteration #         14
 delta_qm =   0.162122E-04 delta_en =   0.183851E-07 tol =   0.100000E-10
 Iteration #         15
 delta_qm =   0.137845E-04 delta_en =   0.156320E-07 tol =   0.100000E-10
 Iteration #         16
 delta_qm =   0.116313E-04 delta_en =   0.131902E-07 tol =   0.100000E-10
 Iteration #         17
 delta_qm =   0.971407E-05 delta_en =   0.110160E-07 tol =   0.100000E-10
 Iteration #         18
 delta_qm =   0.808368E-05 delta_en =   0.916708E-08 tol =   0.100000E-10
 Iteration #         19
 delta_qm =   0.665436E-05 delta_en =   0.754620E-08 tol =   0.100000E-10
 Iteration #         20
 delta_qm =   0.535553E-05 delta_en =   0.607329E-08 tol =   0.100000E-10
 Iteration #         21
 delta_qm =   0.423018E-05 delta_en =   0.479713E-08 tol =   0.100000E-10
 Iteration #         22
 delta_qm =   0.330864E-05 delta_en =   0.375207E-08 tol =   0.100000E-10
 Iteration #         23
 delta_qm =   0.256803E-05 delta_en =   0.291220E-08 tol =   0.100000E-10
 Iteration #         24
 delta_qm =   0.198161E-05 delta_en =   0.224720E-08 tol =   0.100000E-10
 Iteration #         25
 delta_qm =   0.152368E-05 delta_en =   0.172789E-08 tol =   0.100000E-10
 Iteration #         26
 delta_qm =   0.116326E-05 delta_en =   0.131916E-08 tol =   0.100000E-10
 Iteration #         27
 delta_qm =   0.878866E-06 delta_en =   0.996654E-09 tol =   0.100000E-10
 Iteration #         28
 delta_qm =   0.659148E-06 delta_en =   0.747489E-09 tol =   0.100000E-10
 Iteration #         29
 delta_qm =   0.492440E-06 delta_en =   0.558438E-09 tol =   0.100000E-10
 Iteration #         30
 delta_qm =   0.366608E-06 delta_en =   0.415742E-09 tol =   0.100000E-10
 Iteration #         31
 delta_qm =   0.272364E-06 delta_en =   0.308866E-09 tol =   0.100000E-10
 Iteration #         32
 delta_qm =   0.202096E-06 delta_en =   0.229182E-09 tol =   0.100000E-10
 Iteration #         33
 delta_qm =   0.149361E-06 delta_en =   0.169378E-09 tol =   0.100000E-10
 Iteration #         34
 delta_qm =   0.109785E-06 delta_en =   0.124499E-09 tol =   0.100000E-10
 Iteration #         35
 delta_qm =   0.804882E-07 delta_en =   0.912755E-10 tol =   0.100000E-10
 Iteration #         36
 delta_qm =   0.590792E-07 delta_en =   0.669972E-10 tol =   0.100000E-10
 Iteration #         37
 delta_qm =   0.435267E-07 delta_en =   0.493603E-10 tol =   0.100000E-10
 Iteration #         38
 delta_qm =   0.321888E-07 delta_en =   0.365028E-10 tol =   0.100000E-10
 Iteration #         39
 delta_qm =   0.237992E-07 delta_en =   0.269889E-10 tol =   0.100000E-10
 Iteration #         40
 delta_qm =   0.175411E-07 delta_en =   0.198920E-10 tol =   0.100000E-10
 Iteration #         41
 delta_qm =   0.129221E-07 delta_en =   0.146539E-10 tol =   0.100000E-10
 Iteration #         42
 delta_qm =   0.954174E-08 delta_en =   0.108206E-10 tol =   0.100000E-10
 Iteration #         43
 delta_qm =   0.705441E-08 delta_en =   0.799986E-11 tol =   0.100000E-10
 Charges are converged, EXIT

%%%% DENSITY %%%%%%%%%%%%%%%%%%%%%%%%%%%%%%%%%%%%%%%%%%%%%%%%%%%%%%%%%%%%%%%%%%%
 density label              = velectrostatic                                                                  
 integral of density        =     -1492.894825    

%%%% CHARGES %%%%%%%%%%%%%%%%%%%%%%%%%%%%%%%%%%%%%%%%%%%%%%%%%%%%%%%%%%%%%%%%%%%
 total number of charges    =         99
 total charge               =     -1.0000000

%%%% DENSITY %%%%%%%%%%%%%%%%%%%%%%%%%%%%%%%%%%%%%%%%%%%%%%%%%%%%%%%%%%%%%%%%%%%
 density label              = vsoftcavity                                                                     
 integral of density        =      1492.872969    

%%%% ELECTRONS %%%%%%%%%%%%%%%%%%%%%%%%%%%%%%%%%%%%%%%%%%%%%%%%%%%%%%%%%%%%%%%%%
 number of electrons        =         89
 total electronic charge    =     89.0000000
 number of spin components  =  1

%%%% BOUNDARY %%%%%%%%%%%%%%%%%%%%%%%%%%%%%%%%%%%%%%%%%%%%%%%%%%%%%%%%%%%%%%%%%%
 boundary label             = solvent              
 boundary mode              = full                 
 boundary is built as a function of a smooth density
 function type              =  1 
 using the optimal SCCS function with parameters 
 rhomax                     =      0.0050000 
 rhomin                     =      0.0001000 
 volume of the QM region    =   1473.7750167 
 surface of the QM region   =    343.3357805 

%%%% DIELECTRIC %%%%%%%%%%%%%%%%%%%%%%%%%%%%%%%%%%%%%%%%%%%%%%%%%%%%%%%%%%%%%%%%%
 dielectric build on homogeneous background
 environment bulk permitt.  =    100.0000000 
 dielectric flags
 need gradient              =  F 
 need factor depend. sqrt   =  F 
 total dielectric charge    =      0.9903539

%%%% DENSITY %%%%%%%%%%%%%%%%%%%%%%%%%%%%%%%%%%%%%%%%%%%%%%%%%%%%%%%%%%%%%%%%%%%
 density label              = vreference                                                                      
 integral of density        =    -0.1299663206E-11

%%%% COMPUTE ELECTROSTATIC POTENTIAL %%%%%%%%%%%%%%%%%%%%%%%%%%%%%%%%%%%%%%%%%%%
[...]
 Iteration #         33
 delta_qm =   0.116660E-06 delta_en =   0.132295E-09 tol =   0.100000E-10
 Iteration #         34
 delta_qm =   0.858078E-07 delta_en =   0.973080E-10 tol =   0.100000E-10
 Iteration #         35
 delta_qm =   0.628156E-07 delta_en =   0.712343E-10 tol =   0.100000E-10
 Iteration #         36
 delta_qm =   0.455764E-07 delta_en =   0.516847E-10 tol =   0.100000E-10
 Iteration #         37
 delta_qm =   0.330155E-07 delta_en =   0.374404E-10 tol =   0.100000E-10
 Iteration #         38
 delta_qm =   0.242538E-07 delta_en =   0.275044E-10 tol =   0.100000E-10
 Iteration #         39
 delta_qm =   0.181055E-07 delta_en =   0.205321E-10 tol =   0.100000E-10
 Iteration #         40
 delta_qm =   0.134697E-07 delta_en =   0.152750E-10 tol =   0.100000E-10
 Iteration #         41
 delta_qm =   0.983826E-08 delta_en =   0.111568E-10 tol =   0.100000E-10
 Iteration #         42
 delta_qm =   0.714393E-08 delta_en =   0.810138E-11 tol =   0.100000E-10
 Charges are converged, EXIT

%%%% DENSITY %%%%%%%%%%%%%%%%%%%%%%%%%%%%%%%%%%%%%%%%%%%%%%%%%%%%%%%%%%%%%%%%%%%
 density label              = velectrostatic                                                                  
 integral of density        =     -1423.237411    

%%%% CHARGES %%%%%%%%%%%%%%%%%%%%%%%%%%%%%%%%%%%%%%%%%%%%%%%%%%%%%%%%%%%%%%%%%%%
 total number of charges    =         99
 total charge               =     -1.0000000

%%%% DENSITY %%%%%%%%%%%%%%%%%%%%%%%%%%%%%%%%%%%%%%%%%%%%%%%%%%%%%%%%%%%%%%%%%%%
 density label              = vsoftcavity                                                                     
 integral of density        =      39.37897914    

%%%% ELECTRONS %%%%%%%%%%%%%%%%%%%%%%%%%%%%%%%%%%%%%%%%%%%%%%%%%%%%%%%%%%%%%%%%%
 number of electrons        =         89
 total electronic charge    =     89.0000000
 number of spin components  =  1

%%%% BOUNDARY %%%%%%%%%%%%%%%%%%%%%%%%%%%%%%%%%%%%%%%%%%%%%%%%%%%%%%%%%%%%%%%%%%
 boundary label             = solvent              
 boundary mode              = full                 
 boundary is built as a function of a smooth density
 function type              =  1 
 using the optimal SCCS function with parameters 
 rhomax                     =      0.0050000 
 rhomin                     =      0.0001000 
 volume of the QM region    =   1374.9344541 
 surface of the QM region   =    266.4763500 

%%%% DIELECTRIC %%%%%%%%%%%%%%%%%%%%%%%%%%%%%%%%%%%%%%%%%%%%%%%%%%%%%%%%%%%%%%%%%
 dielectric build on homogeneous background
 environment bulk permitt.  =    100.0000000 
 dielectric flags
 need gradient              =  F 
 need factor depend. sqrt   =  F 
 total dielectric charge    =      0.9900669

%%%% DENSITY %%%%%%%%%%%%%%%%%%%%%%%%%%%%%%%%%%%%%%%%%%%%%%%%%%%%%%%%%%%%%%%%%%%
 density label              = vreference                                                                      
 integral of density        =     0.1350355437E-11

%%%% COMPUTE ELECTROSTATIC POTENTIAL %%%%%%%%%%%%%%%%%%%%%%%%%%%%%%%%%%%%%%%%%%%
 Starting from polarization: rhoiter =      1.247321 jellium =      0.000000
 Iteration #          1
 delta_qm =   0.135016E-03 delta_en =   0.153111E-06 tol =   0.100000E-10
 Iteration #          2
 delta_qm =   0.119851E-03 delta_en =   0.135914E-06 tol =   0.100000E-10
 Iteration #          3
 delta_qm =   0.526485E-04 delta_en =   0.597047E-07 tol =   0.100000E-10
 Iteration #          4
 delta_qm =   0.351017E-04 delta_en =   0.398061E-07 tol =   0.100000E-10
 Iteration #          5
 delta_qm =   0.198519E-04 delta_en =   0.225126E-07 tol =   0.100000E-10
 Iteration #          6
 delta_qm =   0.157834E-04 delta_en =   0.178987E-07 tol =   0.100000E-10
 Iteration #          7
 delta_qm =   0.111578E-04 delta_en =   0.126533E-07 tol =   0.100000E-10
 Iteration #          8
 delta_qm =   0.766297E-05 delta_en =   0.868998E-08 tol =   0.100000E-10
 Iteration #          9
 delta_qm =   0.612782E-05 delta_en =   0.694909E-08 tol =   0.100000E-10
 Iteration #         10
 delta_qm =   0.480796E-05 delta_en =   0.545233E-08 tol =   0.100000E-10
 Iteration #         11
 delta_qm =   0.351953E-05 delta_en =   0.399123E-08 tol =   0.100000E-10
 Iteration #         12
 delta_qm =   0.269650E-05 delta_en =   0.305789E-08 tol =   0.100000E-10
 Iteration #         13
 delta_qm =   0.206980E-05 delta_en =   0.234720E-08 tol =   0.100000E-10
 Iteration #         14
 delta_qm =   0.151292E-05 delta_en =   0.171569E-08 tol =   0.100000E-10
 Iteration #         15
 delta_qm =   0.119121E-05 delta_en =   0.135086E-08 tol =   0.100000E-10
 Iteration #         16
 delta_qm =   0.976647E-06 delta_en =   0.110754E-08 tol =   0.100000E-10
 Iteration #         17
 delta_qm =   0.721880E-06 delta_en =   0.818628E-09 tol =   0.100000E-10
 Iteration #         18
 delta_qm =   0.511961E-06 delta_en =   0.580576E-09 tol =   0.100000E-10
 Iteration #         19
 delta_qm =   0.410194E-06 delta_en =   0.465169E-09 tol =   0.100000E-10
 Iteration #         20
 delta_qm =   0.339394E-06 delta_en =   0.384881E-09 tol =   0.100000E-10
 Iteration #         21
 delta_qm =   0.259895E-06 delta_en =   0.294727E-09 tol =   0.100000E-10
 Iteration #         22
 delta_qm =   0.191889E-06 delta_en =   0.217606E-09 tol =   0.100000E-10
 Iteration #         23
 delta_qm =   0.146577E-06 delta_en =   0.166222E-09 tol =   0.100000E-10
 Iteration #         24
 delta_qm =   0.117348E-06 delta_en =   0.133075E-09 tol =   0.100000E-10
 Iteration #         25
 delta_qm =   0.947636E-07 delta_en =   0.107464E-09 tol =   0.100000E-10
 Iteration #         26
 delta_qm =   0.727113E-07 delta_en =   0.824563E-10 tol =   0.100000E-10
 Iteration #         27
 delta_qm =   0.527591E-07 delta_en =   0.598301E-10 tol =   0.100000E-10
 Iteration #         28
 delta_qm =   0.403340E-07 delta_en =   0.457397E-10 tol =   0.100000E-10
 Iteration #         29
 delta_qm =   0.341942E-07 delta_en =   0.387770E-10 tol =   0.100000E-10
 Iteration #         30
 delta_qm =   0.283911E-07 delta_en =   0.321962E-10 tol =   0.100000E-10
 Iteration #         31
 delta_qm =   0.215372E-07 delta_en =   0.244236E-10 tol =   0.100000E-10
 Iteration #         32
 delta_qm =   0.157204E-07 delta_en =   0.178273E-10 tol =   0.100000E-10
 Iteration #         33
 delta_qm =   0.123502E-07 delta_en =   0.140055E-10 tol =   0.100000E-10
 Iteration #         34
 delta_qm =   0.104379E-07 delta_en =   0.118368E-10 tol =   0.100000E-10
 Iteration #         35
 delta_qm =   0.851238E-08 delta_en =   0.965323E-11 tol =   0.100000E-10
 Charges are converged, EXIT

%%%% DENSITY %%%%%%%%%%%%%%%%%%%%%%%%%%%%%%%%%%%%%%%%%%%%%%%%%%%%%%%%%%%%%%%%%%%
 density label              = velectrostatic                                                                  
 integral of density        =     -1429.116038    

%%%% CHARGES %%%%%%%%%%%%%%%%%%%%%%%%%%%%%%%%%%%%%%%%%%%%%%%%%%%%%%%%%%%%%%%%%%%
 total number of charges    =         99
 total charge               =     -1.0000000

%%%% DENSITY %%%%%%%%%%%%%%%%%%%%%%%%%%%%%%%%%%%%%%%%%%%%%%%%%%%%%%%%%%%%%%%%%%%
 density label              = vsoftcavity                                                                     
 integral of density        =      38.85816330    

%%%% ELECTRONS %%%%%%%%%%%%%%%%%%%%%%%%%%%%%%%%%%%%%%%%%%%%%%%%%%%%%%%%%%%%%%%%%
 number of electrons        =         89
 total electronic charge    =     89.0000000
 number of spin components  =  1

%%%% BOUNDARY %%%%%%%%%%%%%%%%%%%%%%%%%%%%%%%%%%%%%%%%%%%%%%%%%%%%%%%%%%%%%%%%%%
 boundary label             = solvent              
 boundary mode              = full                 
 boundary is built as a function of a smooth density
 function type              =  1 
 using the optimal SCCS function with parameters 
 rhomax                     =      0.0050000 
 rhomin                     =      0.0001000 
 volume of the QM region    =   1375.9823062 
 surface of the QM region   =    267.0520106 

%%%% DIELECTRIC %%%%%%%%%%%%%%%%%%%%%%%%%%%%%%%%%%%%%%%%%%%%%%%%%%%%%%%%%%%%%%%%%
 dielectric build on homogeneous background
 environment bulk permitt.  =    100.0000000 
 dielectric flags
 need gradient              =  F 
 need factor depend. sqrt   =  F 
 total dielectric charge    =      0.9900618

%%%% DENSITY %%%%%%%%%%%%%%%%%%%%%%%%%%%%%%%%%%%%%%%%%%%%%%%%%%%%%%%%%%%%%%%%%%%
 density label              = vreference                                                                      
 integral of density        =    -0.4008727668E-11

%%%% COMPUTE ELECTROSTATIC POTENTIAL %%%%%%%%%%%%%%%%%%%%%%%%%%%%%%%%%%%%%%%%%%%
 Starting from polarization: rhoiter =      1.230336 jellium =      0.000000
 Iteration #          1
 delta_qm =   0.726310E-04 delta_en =   0.823653E-07 tol =   0.100000E-10
 Iteration #          2
 delta_qm =   0.537110E-04 delta_en =   0.609095E-07 tol =   0.100000E-10
 Iteration #          3
 delta_qm =   0.286865E-04 delta_en =   0.325311E-07 tol =   0.100000E-10
 Iteration #          4
 delta_qm =   0.210901E-04 delta_en =   0.239167E-07 tol =   0.100000E-10
 Iteration #          5
 delta_qm =   0.134709E-04 delta_en =   0.152763E-07 tol =   0.100000E-10
 Iteration #          6
 delta_qm =   0.963260E-05 delta_en =   0.109236E-07 tol =   0.100000E-10
 Iteration #          7
 delta_qm =   0.717217E-05 delta_en =   0.813340E-08 tol =   0.100000E-10
 Iteration #          8
 delta_qm =   0.521190E-05 delta_en =   0.591042E-08 tol =   0.100000E-10
 Iteration #          9
 delta_qm =   0.380350E-05 delta_en =   0.431326E-08 tol =   0.100000E-10
 Iteration #         10
 delta_qm =   0.292518E-05 delta_en =   0.331722E-08 tol =   0.100000E-10
 Iteration #         11
 delta_qm =   0.238003E-05 delta_en =   0.269900E-08 tol =   0.100000E-10
 Iteration #         12
 delta_qm =   0.201937E-05 delta_en =   0.229001E-08 tol =   0.100000E-10
 Iteration #         13
 delta_qm =   0.171662E-05 delta_en =   0.194669E-08 tol =   0.100000E-10
 Iteration #         14
 delta_qm =   0.142670E-05 delta_en =   0.161791E-08 tol =   0.100000E-10
 Iteration #         15
 delta_qm =   0.117289E-05 delta_en =   0.133008E-08 tol =   0.100000E-10
 Iteration #         16
 delta_qm =   0.956576E-06 delta_en =   0.108478E-08 tol =   0.100000E-10
 Iteration #         17
 delta_qm =   0.770708E-06 delta_en =   0.874001E-09 tol =   0.100000E-10
 Iteration #         18
 delta_qm =   0.622462E-06 delta_en =   0.705886E-09 tol =   0.100000E-10
 Iteration #         19
 delta_qm =   0.504996E-06 delta_en =   0.572677E-09 tol =   0.100000E-10
 Iteration #         20
 delta_qm =   0.402143E-06 delta_en =   0.456039E-09 tol =   0.100000E-10
 Iteration #         21
 delta_qm =   0.312637E-06 delta_en =   0.354537E-09 tol =   0.100000E-10
 Iteration #         22
 delta_qm =   0.241705E-06 delta_en =   0.274099E-09 tol =   0.100000E-10
 Iteration #         23
 delta_qm =   0.186902E-06 delta_en =   0.211951E-09 tol =   0.100000E-10
 Iteration #         24
 delta_qm =   0.143149E-06 delta_en =   0.162334E-09 tol =   0.100000E-10
 Iteration #         25
 delta_qm =   0.108762E-06 delta_en =   0.123339E-09 tol =   0.100000E-10
 Iteration #         26
 delta_qm =   0.825452E-07 delta_en =   0.936082E-10 tol =   0.100000E-10
 Iteration #         27
 delta_qm =   0.622261E-07 delta_en =   0.705658E-10 tol =   0.100000E-10
 Iteration #         28
 delta_qm =   0.462638E-07 delta_en =   0.524643E-10 tol =   0.100000E-10
 Iteration #         29
 delta_qm =   0.340685E-07 delta_en =   0.386344E-10 tol =   0.100000E-10
 Iteration #         30
 delta_qm =   0.250432E-07 delta_en =   0.283995E-10 tol =   0.100000E-10
 Iteration #         31
 delta_qm =   0.184618E-07 delta_en =   0.209361E-10 tol =   0.100000E-10
 Iteration #         32
 delta_qm =   0.136810E-07 delta_en =   0.155146E-10 tol =   0.100000E-10
 Iteration #         33
 delta_qm =   0.101463E-07 delta_en =   0.115062E-10 tol =   0.100000E-10
 Iteration #         34
 delta_qm =   0.745964E-08 delta_en =   0.845940E-11 tol =   0.100000E-10
 Charges are converged, EXIT

%%%% DENSITY %%%%%%%%%%%%%%%%%%%%%%%%%%%%%%%%%%%%%%%%%%%%%%%%%%%%%%%%%%%%%%%%%%%
 density label              = velectrostatic                                                                  
 integral of density        =     -1428.998070    

%%%% CHARGES %%%%%%%%%%%%%%%%%%%%%%%%%%%%%%%%%%%%%%%%%%%%%%%%%%%%%%%%%%%%%%%%%%%
 total number of charges    =         99
 total charge               =     -1.0000000

%%%% DENSITY %%%%%%%%%%%%%%%%%%%%%%%%%%%%%%%%%%%%%%%%%%%%%%%%%%%%%%%%%%%%%%%%%%%
 density label              = vsoftcavity                                                                     
 integral of density        =      38.47909077    

%%%% ELECTRONS %%%%%%%%%%%%%%%%%%%%%%%%%%%%%%%%%%%%%%%%%%%%%%%%%%%%%%%%%%%%%%%%%
 number of electrons        =         89
 total electronic charge    =     89.0000000
 number of spin components  =  1

%%%% BOUNDARY %%%%%%%%%%%%%%%%%%%%%%%%%%%%%%%%%%%%%%%%%%%%%%%%%%%%%%%%%%%%%%%%%%
 boundary label             = solvent              
 boundary mode              = full                 
 boundary is built as a function of a smooth density
 function type              =  1 
 using the optimal SCCS function with parameters 
 rhomax                     =      0.0050000 
 rhomin                     =      0.0001000 
 volume of the QM region    =   1376.0052705 
 surface of the QM region   =    267.5624668 

%%%% DIELECTRIC %%%%%%%%%%%%%%%%%%%%%%%%%%%%%%%%%%%%%%%%%%%%%%%%%%%%%%%%%%%%%%%%%
 dielectric build on homogeneous background
 environment bulk permitt.  =    100.0000000 
 dielectric flags
 need gradient              =  F 
 need factor depend. sqrt   =  F 
 total dielectric charge    =      0.9900601

%%%% DENSITY %%%%%%%%%%%%%%%%%%%%%%%%%%%%%%%%%%%%%%%%%%%%%%%%%%%%%%%%%%%%%%%%%%%
 density label              = vreference                                                                      
 integral of density        =    -0.3383525379E-11

%%%% COMPUTE ELECTROSTATIC POTENTIAL %%%%%%%%%%%%%%%%%%%%%%%%%%%%%%%%%%%%%%%%%%%
 Starting from polarization: rhoiter =      1.223404 jellium =      0.000000
 Iteration #          1
 delta_qm =   0.496729E-04 delta_en =   0.563302E-07 tol =   0.100000E-10
 Iteration #          2
 delta_qm =   0.303539E-04 delta_en =   0.344220E-07 tol =   0.100000E-10
 Iteration #          3
 delta_qm =   0.244754E-04 delta_en =   0.277556E-07 tol =   0.100000E-10
 Iteration #          4
 delta_qm =   0.156343E-04 delta_en =   0.177296E-07 tol =   0.100000E-10
 Iteration #          5
 delta_qm =   0.115301E-04 delta_en =   0.130754E-07 tol =   0.100000E-10
 Iteration #          6
 delta_qm =   0.870778E-05 delta_en =   0.987482E-08 tol =   0.100000E-10
 Iteration #          7
 delta_qm =   0.589650E-05 delta_en =   0.668677E-08 tol =   0.100000E-10
 Iteration #          8
 delta_qm =   0.434060E-05 delta_en =   0.492234E-08 tol =   0.100000E-10
 Iteration #          9
 delta_qm =   0.354010E-05 delta_en =   0.401455E-08 tol =   0.100000E-10
 Iteration #         10
 delta_qm =   0.266659E-05 delta_en =   0.302397E-08 tol =   0.100000E-10
 Iteration #         11
 delta_qm =   0.190413E-05 delta_en =   0.215933E-08 tol =   0.100000E-10
 Iteration #         12
 delta_qm =   0.144450E-05 delta_en =   0.163810E-08 tol =   0.100000E-10
 Iteration #         13
 delta_qm =   0.113445E-05 delta_en =   0.128649E-08 tol =   0.100000E-10
 Iteration #         14
 delta_qm =   0.895952E-06 delta_en =   0.101603E-08 tol =   0.100000E-10
 Iteration #         15
 delta_qm =   0.702932E-06 delta_en =   0.797141E-09 tol =   0.100000E-10
 Iteration #         16
 delta_qm =   0.518258E-06 delta_en =   0.587717E-09 tol =   0.100000E-10
 Iteration #         17
 delta_qm =   0.382390E-06 delta_en =   0.433639E-09 tol =   0.100000E-10
 Iteration #         18
 delta_qm =   0.324984E-06 delta_en =   0.368539E-09 tol =   0.100000E-10
 Iteration #         19
 delta_qm =   0.282596E-06 delta_en =   0.320470E-09 tol =   0.100000E-10
 Iteration #         20
 delta_qm =   0.221489E-06 delta_en =   0.251173E-09 tol =   0.100000E-10
 Iteration #         21
 delta_qm =   0.163157E-06 delta_en =   0.185023E-09 tol =   0.100000E-10
 Iteration #         22
 delta_qm =   0.126675E-06 delta_en =   0.143653E-09 tol =   0.100000E-10
 Iteration #         23
 delta_qm =   0.105380E-06 delta_en =   0.119503E-09 tol =   0.100000E-10
 Iteration #         24
 delta_qm =   0.867555E-07 delta_en =   0.983827E-10 tol =   0.100000E-10
 Iteration #         25
 delta_qm =   0.672585E-07 delta_en =   0.762727E-10 tol =   0.100000E-10
 Iteration #         26
 delta_qm =   0.499647E-07 delta_en =   0.566611E-10 tol =   0.100000E-10
 Iteration #         27
 delta_qm =   0.389840E-07 delta_en =   0.442087E-10 tol =   0.100000E-10
 Iteration #         28
 delta_qm =   0.329919E-07 delta_en =   0.374135E-10 tol =   0.100000E-10
 Iteration #         29
 delta_qm =   0.272403E-07 delta_en =   0.308911E-10 tol =   0.100000E-10
 Iteration #         30
 delta_qm =   0.205680E-07 delta_en =   0.233246E-10 tol =   0.100000E-10
 Iteration #         31
 delta_qm =   0.149989E-07 delta_en =   0.170091E-10 tol =   0.100000E-10
 Iteration #         32
 delta_qm =   0.118929E-07 delta_en =   0.134868E-10 tol =   0.100000E-10
 Iteration #         33
 delta_qm =   0.100338E-07 delta_en =   0.113785E-10 tol =   0.100000E-10
 Iteration #         34
 delta_qm =   0.800876E-08 delta_en =   0.908211E-11 tol =   0.100000E-10
 Charges are converged, EXIT

%%%% DENSITY %%%%%%%%%%%%%%%%%%%%%%%%%%%%%%%%%%%%%%%%%%%%%%%%%%%%%%%%%%%%%%%%%%%
 density label              = velectrostatic                                                                  
 integral of density        =     -1427.433152    

%%%% CHARGES %%%%%%%%%%%%%%%%%%%%%%%%%%%%%%%%%%%%%%%%%%%%%%%%%%%%%%%%%%%%%%%%%%%
 total number of charges    =         99
 total charge               =     -1.0000000

%%%% DENSITY %%%%%%%%%%%%%%%%%%%%%%%%%%%%%%%%%%%%%%%%%%%%%%%%%%%%%%%%%%%%%%%%%%%
 density label              = vsoftcavity                                                                     
 integral of density        =      38.71783986    

%%%% ELECTRONS %%%%%%%%%%%%%%%%%%%%%%%%%%%%%%%%%%%%%%%%%%%%%%%%%%%%%%%%%%%%%%%%%
 number of electrons        =         89
 total electronic charge    =     89.0000000
 number of spin components  =  1

%%%% BOUNDARY %%%%%%%%%%%%%%%%%%%%%%%%%%%%%%%%%%%%%%%%%%%%%%%%%%%%%%%%%%%%%%%%%%
 boundary label             = solvent              
 boundary mode              = full                 
 boundary is built as a function of a smooth density
 function type              =  1 
 using the optimal SCCS function with parameters 
 rhomax                     =      0.0050000 
 rhomin                     =      0.0001000 
 volume of the QM region    =   1376.0052705 
 surface of the QM region   =    267.5624668 

%%%% DIELECTRIC %%%%%%%%%%%%%%%%%%%%%%%%%%%%%%%%%%%%%%%%%%%%%%%%%%%%%%%%%%%%%%%%%
 dielectric build on homogeneous background
 environment bulk permitt.  =    100.0000000 
 dielectric flags
 need gradient              =  F 
 need factor depend. sqrt   =  F 
 total dielectric charge    =      0.9900597

%%%% DENSITY %%%%%%%%%%%%%%%%%%%%%%%%%%%%%%%%%%%%%%%%%%%%%%%%%%%%%%%%%%%%%%%%%%%
 density label              = vreference                                                                      
 integral of density        =    -0.3383525379E-11

%%%% DENSITY %%%%%%%%%%%%%%%%%%%%%%%%%%%%%%%%%%%%%%%%%%%%%%%%%%%%%%%%%%%%%%%%%%%
 density label              = velectrostatic                                                                  
 integral of density        =     -1427.433152    

%%%% CHARGES %%%%%%%%%%%%%%%%%%%%%%%%%%%%%%%%%%%%%%%%%%%%%%%%%%%%%%%%%%%%%%%%%%%
 total number of charges    =         99
 total charge               =     -1.0000000

%%%% DENSITY %%%%%%%%%%%%%%%%%%%%%%%%%%%%%%%%%%%%%%%%%%%%%%%%%%%%%%%%%%%%%%%%%%%
 density label              = vsoftcavity                                                                     
 integral of density        =      38.71783986    
