
     Program PWSCF v.6.4.1 starts on 24Apr2019 at 11:23:13 

     This program is part of the open-source Quantum ESPRESSO suite
     for quantum simulation of materials; please cite
         "P. Giannozzi et al., J. Phys.:Condens. Matter 21 395502 (2009);
         "P. Giannozzi et al., J. Phys.:Condens. Matter 29 465901 (2017);
          URL http://www.quantum-espresso.org", 
     in publications or presentations arising from this work. More details at
     http://www.quantum-espresso.org/quote

     Parallel version (MPI), running on     1 processors

     MPI processes distributed on     1 nodes
     Reading input from neutral.in

     Current dimensions of program PWSCF are:
     Max number of different atomic species (ntypx) = 10
     Max number of k-points (npk) =  40000
     Max angular momentum in pseudopotentials (lmaxx) =  3
     Message from routine  environ_checkin    :
      use some old legacy code for environ
               file C.pbe-rrkjus.UPF: wavefunction(s)  2S 2P renormalized
               file O.pbe-rrkjus.UPF: wavefunction(s)  2S renormalized

     gamma-point specific algorithms are used

     Subspace diagonalization in iterative solution of the eigenvalue problem:
     a serial algorithm will be used

 
     G-vector sticks info
     --------------------
     sticks:   dense  smooth     PW     G-vecs:    dense   smooth      PW
     Sum        2357    1099    269               366833   116965   14571
 


     bravais-lattice index     =            8
     lattice parameter (alat)  =      10.6881  a.u.
     unit-cell volume          =    4181.1215 (a.u.)^3
     number of atoms/cell      =           10
     number of atomic types    =            3
     number of electrons       =        90.00
     number of Kohn-Sham states=           80
     kinetic-energy cutoff     =      35.0000  Ry
     charge density cutoff     =     300.0000  Ry
     convergence threshold     =      5.0E-06
     mixing beta               =       0.7000
     number of iterations used =            8  plain     mixing
     Exchange-correlation      = PBE ( 1  4  3  4 0 0)
 

     Environ Module
     ==============

     Plese cite
         O. Andreussi, I. Dabo and N. Marzari, J. Chem. Phys. 136, 064102 (2012)         
     in publications or presentations arising from this work.

     compensation onset threshold      =               0.1000E+03 
     switching function adopted        =                     SCCS 
     density limit for vacuum region   =               0.5000E-02 
     density limit for bulk solvent    =               0.1000E-03 
     static permittivity               =                   100.00 
     epsilon calculation mode          =                     full 

     Electrostatic Setup
     -------------------
     electrostatic problem to solve    = generalized              
     numerical solver adopted          = iterative                
     type of auxiliary density adopted = full                     
     type of core tool for poisson     = fft                      
     type of core tool for s(r) deriv  = fd                       
     type of numerical differentiator  =            central diff. 
     number of points in num. diff.    =                        2 



     celldm(1)=  10.688100  celldm(2)=   0.866025  celldm(3)=   3.954220
     celldm(4)=   0.000000  celldm(5)=   0.000000  celldm(6)=   0.000000

     crystal axes: (cart. coord. in units of alat)
               a(1) = (   1.000000   0.000000   0.000000 )  
               a(2) = (   0.000000   0.866025   0.000000 )  
               a(3) = (   0.000000   0.000000   3.954220 )  

     reciprocal axes: (cart. coord. in units 2 pi/alat)
               b(1) = (  1.000000  0.000000  0.000000 )  
               b(2) = (  0.000000  1.154701  0.000000 )  
               b(3) = (  0.000000  0.000000  0.252894 )  


     PseudoPot. # 1 for C  read from file:
     /home/fnattino/Programs/quantumespresso/q-e-qe-6.4.1-develop/Environ/tests/../..//pseudo/C.pbe-rrkjus.UPF
     MD5 check sum: c9ac5a99bc85b198593446162950cd17
     Pseudo is Ultrasoft, Zval =  4.0
     Generated by new atomic code, or converted to UPF format
     Using radial grid of  627 points,  4 beta functions with: 
                l(1) =   0
                l(2) =   0
                l(3) =   1
                l(4) =   1
     Q(r) pseudized with 0 coefficients 


     PseudoPot. # 2 for O  read from file:
     /home/fnattino/Programs/quantumespresso/q-e-qe-6.4.1-develop/Environ/tests/../..//pseudo/O.pbe-rrkjus.UPF
     MD5 check sum: fadcf19ee70a498d3030e2e79cf929a4
     Pseudo is Ultrasoft, Zval =  6.0
     Generated by new atomic code, or converted to UPF format
     Using radial grid of 1269 points,  4 beta functions with: 
                l(1) =   0
                l(2) =   0
                l(3) =   1
                l(4) =   1
     Q(r) pseudized with 0 coefficients 


     PseudoPot. # 3 for Pt read from file:
     /home/fnattino/Programs/quantumespresso/q-e-qe-6.4.1-develop/Environ/tests/../..//pseudo/Pt.pbe-n-rrkjus_psl.0.1.UPF
     MD5 check sum: 957548fe13c2a9232dd96292d902c87c
     Pseudo is Ultrasoft + core correction, Zval = 10.0
     Generated using "atomic" code by A. Dal Corso v.5.0.2 svn rev. 9415
     Using radial grid of 1277 points,  6 beta functions with: 
                l(1) =   0
                l(2) =   0
                l(3) =   1
                l(4) =   1
                l(5) =   2
                l(6) =   2
     Q(r) pseudized with 0 coefficients 


     atomic species   valence    mass     pseudopotential
        C              4.00     1.00000     C ( 1.00)
        O              6.00     1.00000     O ( 1.00)
        Pt            10.00     1.00000     Pt( 1.00)

     No symmetry found



   Cartesian axes

     site n.     atom                  positions (alat units)
         1           C   tau(   1) = (   0.4991611   0.4347567   1.2070461  )
         2           O   tau(   2) = (   0.4991542   0.4322212   1.4109013  )
         3           Pt  tau(   3) = (   0.7542339   0.0091745   0.8413229  )
         4           Pt  tau(   4) = (   0.2441023   0.0091745   0.8413226  )
         5           Pt  tau(   5) = (   0.0000034   0.4416918   0.8391348  )
         6           Pt  tau(   6) = (   0.4991682   0.4417635   0.8776299  )
         7           Pt  tau(   7) = (   0.0000038   0.7300598   0.4308181  )
         8           Pt  tau(   8) = (   0.4991683   0.7202168   0.4447460  )
         9           Pt  tau(   9) = (   0.2524172   0.2949237   0.4386572  )
        10           Pt  tau(  10) = (   0.7459196   0.2949237   0.4386575  )

     number of k points=     1  Marzari-Vanderbilt smearing, width (Ry)=  0.0300
                       cart. coord. in units 2pi/alat
        k(    1) = (   0.0000000   0.0000000   0.0000000), wk =   2.0000000

     Dense  grid:   183417 G-vectors     FFT dimensions: (  60,  54, 240)

     Smooth grid:    58483 G-vectors     FFT dimensions: (  45,  36, 160)

     Estimated max dynamical RAM per process >     774.12 MB

     Initial potential from superposition of free atoms

     starting charge   89.99859, renormalised to   90.00000

     negative rho (up, down):  3.086E-03 0.000E+00
     Starting wfcs are   80 randomized atomic wfcs

     total cpu time spent up to now is        6.9 secs

     Self-consistent Calculation

     iteration #  1     ecut=    35.00 Ry     beta= 0.70
     Davidson diagonalization with overlap
     ethr =  1.00E-02,  avg # of iterations =  8.0

     negative rho (up, down):  2.238E-03 0.000E+00

     add environment contribution to local potential
     polarization accuracy = 9.4E-12, # of iterations =  38

     total cpu time spent up to now is       14.4 secs

     total energy              =    -623.07809637 Ry
     Harris-Foulkes estimate   =    -624.45781295 Ry
     estimated scf accuracy    <       1.80056025 Ry
     electrostatic embedding   =       0.00000000 Ry
     correction to one-el term =       0.00000000 Ry

     iteration #  2     ecut=    35.00 Ry     beta= 0.70
     Davidson diagonalization with overlap
     ethr =  2.00E-03,  avg # of iterations =  6.0

     negative rho (up, down):  1.417E-02 0.000E+00

     add environment contribution to local potential
     polarization accuracy = 8.8E-12, # of iterations =  38

     total cpu time spent up to now is       21.7 secs

     total energy              =    -621.95566474 Ry
     Harris-Foulkes estimate   =    -657.35608297 Ry
     estimated scf accuracy    <      14.76096745 Ry
     electrostatic embedding   =      -0.02130894 Ry
     correction to one-el term =      31.18651266 Ry

     iteration #  3     ecut=    35.00 Ry     beta= 0.70
     Davidson diagonalization with overlap
     ethr =  2.00E-03,  avg # of iterations = 10.0

     negative rho (up, down):  1.575E-02 0.000E+00

     add environment contribution to local potential
     polarization accuracy = 7.6E-12, # of iterations =  32

     total cpu time spent up to now is       28.6 secs

     total energy              =    -622.99510781 Ry
     Harris-Foulkes estimate   =    -653.88300356 Ry
     estimated scf accuracy    <      25.19776284 Ry
     electrostatic embedding   =       0.00239462 Ry
     correction to one-el term =      28.14780849 Ry

     iteration #  4     ecut=    35.00 Ry     beta= 0.70
     Davidson diagonalization with overlap
     ethr =  2.00E-03,  avg # of iterations =  7.0

     negative rho (up, down):  8.022E-03 0.000E+00

     add environment contribution to local potential
     polarization accuracy = 9.6E-12, # of iterations =  32

     total cpu time spent up to now is       35.3 secs

     total energy              =    -623.89083250 Ry
     Harris-Foulkes estimate   =    -653.23613323 Ry
     estimated scf accuracy    <       6.57931995 Ry
     electrostatic embedding   =       0.00123672 Ry
     correction to one-el term =      28.67295641 Ry

     iteration #  5     ecut=    35.00 Ry     beta= 0.70
     Davidson diagonalization with overlap
     ethr =  2.00E-03,  avg # of iterations =  3.0

     negative rho (up, down):  7.079E-03 0.000E+00

     add environment contribution to local potential
     polarization accuracy = 9.1E-12, # of iterations =  33

     total cpu time spent up to now is       41.7 secs

     total energy              =    -624.06656519 Ry
     Harris-Foulkes estimate   =    -652.12186544 Ry
     estimated scf accuracy    <       0.47636326 Ry
     electrostatic embedding   =      -0.00214864 Ry
     correction to one-el term =      27.92486343 Ry

     iteration #  6     ecut=    35.00 Ry     beta= 0.70
     Davidson diagonalization with overlap
     ethr =  5.29E-04,  avg # of iterations =  6.0

     negative rho (up, down):  5.718E-03 0.000E+00

     add environment contribution to local potential
     polarization accuracy = 8.3E-12, # of iterations =  31

     total cpu time spent up to now is       47.9 secs

     total energy              =    -624.12012699 Ry
     Harris-Foulkes estimate   =    -651.54847562 Ry
     estimated scf accuracy    <       0.14930849 Ry
     electrostatic embedding   =      -0.00304613 Ry
     correction to one-el term =      27.39624564 Ry

     iteration #  7     ecut=    35.00 Ry     beta= 0.70
     Davidson diagonalization with overlap
     ethr =  1.66E-04,  avg # of iterations =  1.0

     negative rho (up, down):  3.758E-03 0.000E+00

     add environment contribution to local potential
     polarization accuracy = 9.2E-12, # of iterations =  30

     total cpu time spent up to now is       54.0 secs

     total energy              =    -624.13073756 Ry
     Harris-Foulkes estimate   =    -651.79305790 Ry
     estimated scf accuracy    <       0.03644317 Ry
     electrostatic embedding   =      -0.00312358 Ry
     correction to one-el term =      27.65370096 Ry

     iteration #  8     ecut=    35.00 Ry     beta= 0.70
     Davidson diagonalization with overlap
     ethr =  4.05E-05,  avg # of iterations =  3.0

     negative rho (up, down):  3.228E-03 0.000E+00

     add environment contribution to local potential
     polarization accuracy = 9.1E-12, # of iterations =  30

     total cpu time spent up to now is       60.1 secs

     total energy              =    -624.13520742 Ry
     Harris-Foulkes estimate   =    -651.78677974 Ry
     estimated scf accuracy    <       0.02301926 Ry
     electrostatic embedding   =      -0.00319247 Ry
     correction to one-el term =      27.64893735 Ry

     iteration #  9     ecut=    35.00 Ry     beta= 0.70
     Davidson diagonalization with overlap
     ethr =  2.56E-05,  avg # of iterations =  3.0

     negative rho (up, down):  3.273E-03 0.000E+00

     add environment contribution to local potential
     polarization accuracy = 9.7E-12, # of iterations =  27

     total cpu time spent up to now is       65.9 secs

     total energy              =    -624.13604923 Ry
     Harris-Foulkes estimate   =    -651.31169894 Ry
     estimated scf accuracy    <       0.02347468 Ry
     electrostatic embedding   =      -0.00375622 Ry
     correction to one-el term =      27.17465287 Ry

     iteration # 10     ecut=    35.00 Ry     beta= 0.70
     Davidson diagonalization with overlap
     ethr =  2.56E-05,  avg # of iterations =  1.0

     negative rho (up, down):  3.215E-03 0.000E+00

     add environment contribution to local potential
     polarization accuracy = 9.4E-12, # of iterations =  27

     total cpu time spent up to now is       71.5 secs

     total energy              =    -624.13766175 Ry
     Harris-Foulkes estimate   =    -651.38919448 Ry
     estimated scf accuracy    <       0.01969248 Ry
     electrostatic embedding   =      -0.00381000 Ry
     correction to one-el term =      27.25350992 Ry

     iteration # 11     ecut=    35.00 Ry     beta= 0.70
     Davidson diagonalization with overlap
     ethr =  2.19E-05,  avg # of iterations =  3.0

     negative rho (up, down):  3.112E-03 0.000E+00

     add environment contribution to local potential
     polarization accuracy = 8.8E-12, # of iterations =  24

     total cpu time spent up to now is       76.9 secs

     total energy              =    -624.13811528 Ry
     Harris-Foulkes estimate   =    -651.51217082 Ry
     estimated scf accuracy    <       0.00292854 Ry
     electrostatic embedding   =      -0.00370342 Ry
     correction to one-el term =      27.37712028 Ry

     iteration # 12     ecut=    35.00 Ry     beta= 0.70
     Davidson diagonalization with overlap
     ethr =  3.25E-06,  avg # of iterations =  3.0

     negative rho (up, down):  3.149E-03 0.000E+00

     add environment contribution to local potential
     polarization accuracy = 9.8E-12, # of iterations =  24

     total cpu time spent up to now is       82.5 secs

     total energy              =    -624.13762387 Ry
     Harris-Foulkes estimate   =    -651.45785265 Ry
     estimated scf accuracy    <       0.01337467 Ry
     electrostatic embedding   =      -0.00383024 Ry
     correction to one-el term =      27.32226799 Ry

     iteration # 13     ecut=    35.00 Ry     beta= 0.70
     Davidson diagonalization with overlap
     ethr =  3.25E-06,  avg # of iterations =  1.0

     negative rho (up, down):  3.097E-03 0.000E+00

     add environment contribution to local potential
     polarization accuracy = 8.4E-12, # of iterations =  20

     total cpu time spent up to now is       87.4 secs

     total energy              =    -624.13848778 Ry
     Harris-Foulkes estimate   =    -651.42607444 Ry
     estimated scf accuracy    <       0.00004725 Ry
     electrostatic embedding   =      -0.00381051 Ry
     correction to one-el term =      27.29138190 Ry

     iteration # 14     ecut=    35.00 Ry     beta= 0.70
     Davidson diagonalization with overlap
     ethr =  5.25E-08,  avg # of iterations =  2.0

     negative rho (up, down):  3.095E-03 0.000E+00

     add environment contribution to local potential
     polarization accuracy = 9.7E-12, # of iterations =  19

     total cpu time spent up to now is       92.6 secs

     total energy              =    -624.13846923 Ry
     Harris-Foulkes estimate   =    -651.40338921 Ry
     estimated scf accuracy    <       0.00070648 Ry
     electrostatic embedding   =      -0.00384209 Ry
     correction to one-el term =      27.26870263 Ry

     iteration # 15     ecut=    35.00 Ry     beta= 0.70
     Davidson diagonalization with overlap
     ethr =  5.25E-08,  avg # of iterations =  2.0

     negative rho (up, down):  3.091E-03 0.000E+00

     add environment contribution to local potential
     polarization accuracy = 8.6E-12, # of iterations =  18

     total cpu time spent up to now is       97.5 secs

     total energy              =    -624.13849987 Ry
     Harris-Foulkes estimate   =    -651.41157940 Ry
     estimated scf accuracy    <       0.00007138 Ry
     electrostatic embedding   =      -0.00385455 Ry
     correction to one-el term =      27.27692681 Ry

     iteration # 16     ecut=    35.00 Ry     beta= 0.70
     Davidson diagonalization with overlap
     ethr =  5.25E-08,  avg # of iterations =  1.0

     negative rho (up, down):  3.090E-03 0.000E+00

     add environment contribution to local potential
     polarization accuracy = 9.8E-12, # of iterations =  11

     total cpu time spent up to now is      101.7 secs

     total energy              =    -624.13850304 Ry
     Harris-Foulkes estimate   =    -651.40783825 Ry
     estimated scf accuracy    <       0.00000862 Ry
     electrostatic embedding   =      -0.00384721 Ry
     correction to one-el term =      27.27318064 Ry

     iteration # 17     ecut=    35.00 Ry     beta= 0.70
     Davidson diagonalization with overlap
     ethr =  9.58E-09,  avg # of iterations =  1.0

     negative rho (up, down):  3.090E-03 0.000E+00

     the potential shift due to the Gaussian-smeared nuclei is    -0.4600 ev

     total cpu time spent up to now is      104.2 secs

     End of self-consistent calculation

          k = 0.0000 0.0000 0.0000 (  7286 PWs)   bands (ev):

   -29.0349 -15.1668 -13.3021 -12.5473 -11.8482 -11.8128 -11.7446 -11.0314
   -10.8823 -10.0499  -9.8961  -9.8036  -9.5395  -9.5018  -9.4385  -9.2838
    -8.6513  -8.6081  -8.5599  -8.3669  -8.2758  -8.2254  -8.1703  -8.1444
    -8.1276  -7.9610  -7.9171  -7.8445  -7.7561  -7.4842  -7.3807  -6.6518
    -6.5011  -6.4039  -6.0763  -5.9771  -5.9306  -5.7648  -5.6545  -5.4663
    -5.3002  -5.2525  -5.0638  -5.0406  -4.9919  -4.9792  -4.8032  -3.7526
    -3.3588  -3.2675  -2.8514  -2.2565  -2.1333  -1.2119  -0.8273  -0.7194
    -0.5365   0.0413   0.6280   0.6989   0.9552   1.3122   2.2618   2.4323
     2.4869   2.8221   3.0622   3.2980   3.6019   3.6646   4.0869   4.0891
     4.4664   4.6695   4.9499   5.1196   5.3390   5.3467   5.4495   5.4579

     the Fermi energy is    -4.8894 ev

!    total energy              =    -624.13850004 Ry
     Harris-Foulkes estimate   =    -651.40653188 Ry
     estimated scf accuracy    <       0.00000447 Ry

     The total energy is the sum of the following terms:

     one-electron contribution =   -3993.45230897 Ry
     hartree contribution      =    2032.04915671 Ry
     xc contribution           =    -263.20262108 Ry
     ewald contribution        =    1573.20467954 Ry
     smearing contrib. (-TS)   =      -0.00543393 Ry
     electrostatic embedding   =      -0.00384828 Ry
     correction to one-el term =      27.27187597 Ry

     WARNING: you are using the parabolic pbc correction;
              the potential shift above must be added to 
              band and Fermi energies.

     convergence has been achieved in  17 iterations

     negative rho (up, down):  3.090E-03 0.000E+00

     Forces acting on atoms (cartesian axes, Ry/au):

     atom    1 type  1   force =     0.00007850   -0.00663670    0.02108064
     atom    2 type  2   force =    -0.00012633    0.00187891   -0.00485265
     atom    3 type  3   force =    -0.00135335    0.01008470    0.03487704
     atom    4 type  3   force =     0.00235772    0.01030701    0.03542983
     atom    5 type  3   force =    -0.00176214    0.01487023   -0.00613678
     atom    6 type  3   force =     0.00071668    0.00984820    0.05722196
     atom    7 type  3   force =    -0.00154655   -0.01127865   -0.04224627
     atom    8 type  3   force =     0.00048010   -0.01069140   -0.02612342
     atom    9 type  3   force =     0.01418188   -0.00936684   -0.03486366
     atom   10 type  3   force =    -0.01302652   -0.00901545   -0.03438670

     Total force =     0.111738     Total SCF correction =     0.004464

     Writing output data file pwscf.save/
 
     init_run     :      5.66s CPU      5.98s WALL (       1 calls)
     electrons    :     88.65s CPU     97.35s WALL (       1 calls)
     forces       :      3.94s CPU      4.20s WALL (       1 calls)

     Called by init_run:
     wfcinit      :      0.28s CPU      0.30s WALL (       1 calls)
     potinit      :      1.44s CPU      1.49s WALL (       1 calls)
     hinit0       :      3.45s CPU      3.48s WALL (       1 calls)

     Called by electrons:
     c_bands      :     13.85s CPU     14.40s WALL (      17 calls)
     sum_band     :     11.40s CPU     14.87s WALL (      17 calls)
     v_of_rho     :      4.34s CPU      4.62s WALL (      18 calls)
     newd         :      6.99s CPU     10.98s WALL (      18 calls)
     mix_rho      :      0.47s CPU      0.47s WALL (      17 calls)

     Called by c_bands:
     init_us_2    :      0.15s CPU      0.17s WALL (      35 calls)
     regterg      :     12.76s CPU     13.30s WALL (      17 calls)

     Called by sum_band:
     sum_band:bec :      0.00s CPU      0.00s WALL (      17 calls)
     addusdens    :      8.96s CPU     12.37s WALL (      17 calls)

     Called by *egterg:
     h_psi        :      9.90s CPU      9.94s WALL (      79 calls)
     s_psi        :      0.49s CPU      0.47s WALL (      79 calls)
     g_psi        :      0.10s CPU      0.08s WALL (      61 calls)
     rdiaghg      :      0.60s CPU      0.60s WALL (      78 calls)

     Called by h_psi:
     h_psi:pot    :      9.88s CPU      9.89s WALL (      79 calls)
     h_psi:calbec :      0.45s CPU      0.45s WALL (      79 calls)
     vloc_psi     :      8.92s CPU      8.92s WALL (      79 calls)
     add_vuspsi   :      0.51s CPU      0.51s WALL (      79 calls)

     General routines
     calbec       :      0.65s CPU      0.66s WALL (     100 calls)
     fft          :     13.97s CPU     14.38s WALL (    2210 calls)
     ffts         :      0.09s CPU      0.08s WALL (      35 calls)
     fftw         :      9.19s CPU      9.11s WALL (    4030 calls)
     interpolate  :      0.20s CPU      0.23s WALL (      18 calls)
 
     Parallel routines
 
     Environ routines
     calc_eelect  :      0.01s CPU      0.02s WALL (      34 calls)
     calc_velect  :     47.38s CPU     47.47s WALL (      32 calls)
     dielectric   :      0.58s CPU      0.58s WALL (      20 calls)
     calc_felect  :      0.08s CPU      0.08s WALL (       1 calls)
 
     PWSCF        :   1m39.18s CPU   1m48.50s WALL

 
   This run was terminated on:  11:25: 2  24Apr2019            

=------------------------------------------------------------------------------=
   JOB DONE.
=------------------------------------------------------------------------------=

%%%% IONS %%%%%%%%%%%%%%%%%%%%%%%%%%%%%%%%%%%%%%%%%%%%%%%%%%%%%%%%%%%%%%%%%%%%%%
 number of ions             =         10
 ionic center of charge     =      0.3882415     0.3750182     0.7201831
 total ionic charge         =    -90.0000000
 ionic dipole               =      0.0000000     0.0000000     0.0000000
 ionic quadrupole (pc)      =   -730.5101255  -614.6110457  -876.7220256
 ionic quadrupole (gauss)   =   -741.7601255  -625.8610457  -887.9720256
 ion   1 type =  1 coordinates =      5.3350841     4.6467234    12.9010299
 ion   2 type =  2 coordinates =      5.3350096     4.6196233    15.0798543
 ion   3 type =  3 coordinates =      8.0613271     0.0980580     8.9921429
 ion   4 type =  3 coordinates =      2.6089894     0.0980583     8.9921406
 ion   5 type =  3 coordinates =      0.0000366     4.7208463     8.9687569
 ion   6 type =  3 coordinates =      5.3351596     4.7216127     9.3801964
 ion   7 type =  3 coordinates =      0.0000411     7.8029520     4.6046265
 ion   8 type =  3 coordinates =      5.3351612     7.6977491     4.7534894
 ion   9 type =  3 coordinates =      2.6978606     3.1521739     4.6884123
 ion  10 type =  3 coordinates =      7.9724637     3.1521745     4.6884152

%%%% SYSTEM %%%%%%%%%%%%%%%%%%%%%%%%%%%%%%%%%%%%%%%%%%%%%%%%%%%%%%%%%%%%%%%%%%%%
 system is built from all present ionic types
 system defined dimension   =  0 
 system defined axis        =  3 
 system center              =      0.3882415     0.3750182     0.7201831 
 system width               =      0.7019013 

%%%% ELECTRONS %%%%%%%%%%%%%%%%%%%%%%%%%%%%%%%%%%%%%%%%%%%%%%%%%%%%%%%%%%%%%%%%%
 number of electrons        =         90
 total electronic charge    =     90.0000000

%%%% BOUNDARY %%%%%%%%%%%%%%%%%%%%%%%%%%%%%%%%%%%%%%%%%%%%%%%%%%%%%%%%%%%%%%%%%%
 boundary label             = solvent              
 boundary mode              = full                 
 boundary is built as a function of a smooth density
 function type              =  1 
 using the optimal SCCS function with parameters 
 rhomax                     =      0.0050000 
 rhomin                     =      0.0001000 
 volume of the QM region    =   1490.4229533 
 surface of the QM region   =    254.8675705 

%%%% DIELECTRIC %%%%%%%%%%%%%%%%%%%%%%%%%%%%%%%%%%%%%%%%%%%%%%%%%%%%%%%%%%%%%%%%%
 dielectric build on homogeneous background
 environment bulk permitt.  =    100.0000000 
 dielectric flags
 need gradient              =  F 
 need factor depend. sqrt   =  F 
 total dielectric charge    =      0.0000000

%%%% DENSITY %%%%%%%%%%%%%%%%%%%%%%%%%%%%%%%%%%%%%%%%%%%%%%%%%%%%%%%%%%%%%%%%%%%
 density label              = vreference                                                                      
 integral of density        =      0.000000000    

%%%% DENSITY %%%%%%%%%%%%%%%%%%%%%%%%%%%%%%%%%%%%%%%%%%%%%%%%%%%%%%%%%%%%%%%%%%%
 density label              = velectrostatic                                                                  
 integral of density        =      0.000000000    

%%%% CHARGES %%%%%%%%%%%%%%%%%%%%%%%%%%%%%%%%%%%%%%%%%%%%%%%%%%%%%%%%%%%%%%%%%%%
 total number of charges    =        100
 total charge               =     -0.0000000

%%%% DENSITY %%%%%%%%%%%%%%%%%%%%%%%%%%%%%%%%%%%%%%%%%%%%%%%%%%%%%%%%%%%%%%%%%%%
 density label              = vsoftcavity                                                                     
 integral of density        =      0.000000000    

%%%% ELECTRONS %%%%%%%%%%%%%%%%%%%%%%%%%%%%%%%%%%%%%%%%%%%%%%%%%%%%%%%%%%%%%%%%%
 number of electrons        =         90
 total electronic charge    =     90.0000000

%%%% BOUNDARY %%%%%%%%%%%%%%%%%%%%%%%%%%%%%%%%%%%%%%%%%%%%%%%%%%%%%%%%%%%%%%%%%%
 boundary label             = solvent              
 boundary mode              = full                 
 boundary is built as a function of a smooth density
 function type              =  1 
 using the optimal SCCS function with parameters 
 rhomax                     =      0.0050000 
 rhomin                     =      0.0001000 
 volume of the QM region    =   1521.3567960 
 surface of the QM region   =    250.0052471 

%%%% DIELECTRIC %%%%%%%%%%%%%%%%%%%%%%%%%%%%%%%%%%%%%%%%%%%%%%%%%%%%%%%%%%%%%%%%%
 dielectric build on homogeneous background
 environment bulk permitt.  =    100.0000000 
 dielectric flags
 need gradient              =  F 
 need factor depend. sqrt   =  F 
 total dielectric charge    =      0.0000000

%%%% DENSITY %%%%%%%%%%%%%%%%%%%%%%%%%%%%%%%%%%%%%%%%%%%%%%%%%%%%%%%%%%%%%%%%%%%
 density label              = vreference                                                                      
 integral of density        =    -0.3037718963E-11

%%%% COMPUTE ELECTROSTATIC POTENTIAL %%%%%%%%%%%%%%%%%%%%%%%%%%%%%%%%%%%%%%%%%%%
 Starting from polarization: rhoiter =      0.000000 jellium =      0.000000
 Iteration #          1
 delta_qm =   0.126282E-02 delta_en =   0.143207E-05 tol =   0.100000E-10
 Iteration #          2
 delta_qm =   0.135034E-02 delta_en =   0.153132E-05 tol =   0.100000E-10
 Iteration #          3
 delta_qm =   0.721969E-03 delta_en =   0.818729E-06 tol =   0.100000E-10
 Iteration #          4
 delta_qm =   0.575559E-03 delta_en =   0.652697E-06 tol =   0.100000E-10
 Iteration #          5
 delta_qm =   0.319595E-03 delta_en =   0.362428E-06 tol =   0.100000E-10
 Iteration #          6
 delta_qm =   0.249388E-03 delta_en =   0.282811E-06 tol =   0.100000E-10
 Iteration #          7
 delta_qm =   0.199127E-03 delta_en =   0.225815E-06 tol =   0.100000E-10
 Iteration #          8
 delta_qm =   0.126557E-03 delta_en =   0.143518E-06 tol =   0.100000E-10
 Iteration #          9
 delta_qm =   0.877163E-04 delta_en =   0.994723E-07 tol =   0.100000E-10
 Iteration #         10
 delta_qm =   0.737001E-04 delta_en =   0.835776E-07 tol =   0.100000E-10
 Iteration #         11
 delta_qm =   0.517919E-04 delta_en =   0.587333E-07 tol =   0.100000E-10
 Iteration #         12
 delta_qm =   0.331744E-04 delta_en =   0.376205E-07 tol =   0.100000E-10
 Iteration #         13
 delta_qm =   0.268687E-04 delta_en =   0.304697E-07 tol =   0.100000E-10
 Iteration #         14
 delta_qm =   0.207085E-04 delta_en =   0.234839E-07 tol =   0.100000E-10
 Iteration #         15
 delta_qm =   0.132330E-04 delta_en =   0.150065E-07 tol =   0.100000E-10
 Iteration #         16
 delta_qm =   0.970542E-05 delta_en =   0.110062E-07 tol =   0.100000E-10
 Iteration #         17
 delta_qm =   0.794512E-05 delta_en =   0.900995E-08 tol =   0.100000E-10
 Iteration #         18
 delta_qm =   0.535867E-05 delta_en =   0.607686E-08 tol =   0.100000E-10
 Iteration #         19
 delta_qm =   0.354483E-05 delta_en =   0.401992E-08 tol =   0.100000E-10
 Iteration #         20
 delta_qm =   0.292546E-05 delta_en =   0.331754E-08 tol =   0.100000E-10
 Iteration #         21
 delta_qm =   0.216294E-05 delta_en =   0.245282E-08 tol =   0.100000E-10
 Iteration #         22
 delta_qm =   0.137329E-05 delta_en =   0.155735E-08 tol =   0.100000E-10
 Iteration #         23
 delta_qm =   0.104611E-05 delta_en =   0.118631E-08 tol =   0.100000E-10
 Iteration #         24
 delta_qm =   0.833359E-06 delta_en =   0.945048E-09 tol =   0.100000E-10
 Iteration #         25
 delta_qm =   0.548262E-06 delta_en =   0.621742E-09 tol =   0.100000E-10
 Iteration #         26
 delta_qm =   0.376813E-06 delta_en =   0.427314E-09 tol =   0.100000E-10
 Iteration #         27
 delta_qm =   0.308528E-06 delta_en =   0.349877E-09 tol =   0.100000E-10
 Iteration #         28
 delta_qm =   0.218367E-06 delta_en =   0.247633E-09 tol =   0.100000E-10
 Iteration #         29
 delta_qm =   0.139786E-06 delta_en =   0.158520E-09 tol =   0.100000E-10
 Iteration #         30
 delta_qm =   0.109780E-06 delta_en =   0.124493E-09 tol =   0.100000E-10
 Iteration #         31
 delta_qm =   0.844426E-07 delta_en =   0.957598E-10 tol =   0.100000E-10
 Iteration #         32
 delta_qm =   0.542551E-07 delta_en =   0.615265E-10 tol =   0.100000E-10
 Iteration #         33
 delta_qm =   0.384926E-07 delta_en =   0.436515E-10 tol =   0.100000E-10
 Iteration #         34
 delta_qm =   0.311367E-07 delta_en =   0.353098E-10 tol =   0.100000E-10
 Iteration #         35
 delta_qm =   0.214972E-07 delta_en =   0.243783E-10 tol =   0.100000E-10
 Iteration #         36
 delta_qm =   0.142711E-07 delta_en =   0.161838E-10 tol =   0.100000E-10
 Iteration #         37
 delta_qm =   0.113006E-07 delta_en =   0.128151E-10 tol =   0.100000E-10
 Iteration #         38
 delta_qm =   0.829327E-08 delta_en =   0.940475E-11 tol =   0.100000E-10
 Charges are converged, EXIT

%%%% DENSITY %%%%%%%%%%%%%%%%%%%%%%%%%%%%%%%%%%%%%%%%%%%%%%%%%%%%%%%%%%%%%%%%%%%
 density label              = velectrostatic                                                                  
 integral of density        =     -1681.997289    

%%%% CHARGES %%%%%%%%%%%%%%%%%%%%%%%%%%%%%%%%%%%%%%%%%%%%%%%%%%%%%%%%%%%%%%%%%%%
 total number of charges    =        100
 total charge               =      0.0000000

%%%% DENSITY %%%%%%%%%%%%%%%%%%%%%%%%%%%%%%%%%%%%%%%%%%%%%%%%%%%%%%%%%%%%%%%%%%%
 density label              = vsoftcavity                                                                     
 integral of density        =      22.99450323    

%%%% ELECTRONS %%%%%%%%%%%%%%%%%%%%%%%%%%%%%%%%%%%%%%%%%%%%%%%%%%%%%%%%%%%%%%%%%
 number of electrons        =         90
 total electronic charge    =     90.0000000

%%%% BOUNDARY %%%%%%%%%%%%%%%%%%%%%%%%%%%%%%%%%%%%%%%%%%%%%%%%%%%%%%%%%%%%%%%%%%
 boundary label             = solvent              
 boundary mode              = full                 
 boundary is built as a function of a smooth density
 function type              =  1 
 using the optimal SCCS function with parameters 
 rhomax                     =      0.0050000 
 rhomin                     =      0.0001000 
 volume of the QM region    =   1503.4252716 
 surface of the QM region   =    272.5773409 

%%%% DIELECTRIC %%%%%%%%%%%%%%%%%%%%%%%%%%%%%%%%%%%%%%%%%%%%%%%%%%%%%%%%%%%%%%%%%
 dielectric build on homogeneous background
 environment bulk permitt.  =    100.0000000 
 dielectric flags
 need gradient              =  F 
 need factor depend. sqrt   =  F 
 total dielectric charge    =      0.0000068

%%%% DENSITY %%%%%%%%%%%%%%%%%%%%%%%%%%%%%%%%%%%%%%%%%%%%%%%%%%%%%%%%%%%%%%%%%%%
 density label              = vreference                                                                      
 integral of density        =     0.1108623394E-11

%%%% COMPUTE ELECTROSTATIC POTENTIAL %%%%%%%%%%%%%%%%%%%%%%%%%%%%%%%%%%%%%%%%%%%
 Starting from polarization: rhoiter =      0.284344 jellium =      0.000000
 Iteration #          1
 delta_qm =   0.977593E-03 delta_en =   0.110861E-05 tol =   0.100000E-10
 Iteration #          2
 delta_qm =   0.466993E-03 delta_en =   0.529581E-06 tol =   0.100000E-10
 Iteration #          3
 delta_qm =   0.372215E-03 delta_en =   0.422101E-06 tol =   0.100000E-10
 Iteration #          4
 delta_qm =   0.269811E-03 delta_en =   0.305971E-06 tol =   0.100000E-10
 Iteration #          5
 delta_qm =   0.178525E-03 delta_en =   0.202451E-06 tol =   0.100000E-10
 Iteration #          6
 delta_qm =   0.129099E-03 delta_en =   0.146401E-06 tol =   0.100000E-10
 Iteration #          7
 delta_qm =   0.997525E-04 delta_en =   0.113122E-06 tol =   0.100000E-10
 Iteration #          8
 delta_qm =   0.687491E-04 delta_en =   0.779630E-07 tol =   0.100000E-10
 Iteration #          9
 delta_qm =   0.462537E-04 delta_en =   0.524527E-07 tol =   0.100000E-10
 Iteration #         10
 delta_qm =   0.355792E-04 delta_en =   0.403477E-07 tol =   0.100000E-10
 Iteration #         11
 delta_qm =   0.258414E-04 delta_en =   0.293048E-07 tol =   0.100000E-10
 Iteration #         12
 delta_qm =   0.170598E-04 delta_en =   0.193462E-07 tol =   0.100000E-10
 Iteration #         13
 delta_qm =   0.132984E-04 delta_en =   0.150807E-07 tol =   0.100000E-10
 Iteration #         14
 delta_qm =   0.109033E-04 delta_en =   0.123646E-07 tol =   0.100000E-10
 Iteration #         15
 delta_qm =   0.775496E-05 delta_en =   0.879431E-08 tol =   0.100000E-10
 Iteration #         16
 delta_qm =   0.553076E-05 delta_en =   0.627201E-08 tol =   0.100000E-10
 Iteration #         17
 delta_qm =   0.434295E-05 delta_en =   0.492501E-08 tol =   0.100000E-10
 Iteration #         18
 delta_qm =   0.316440E-05 delta_en =   0.358850E-08 tol =   0.100000E-10
 Iteration #         19
 delta_qm =   0.224415E-05 delta_en =   0.254492E-08 tol =   0.100000E-10
 Iteration #         20
 delta_qm =   0.183193E-05 delta_en =   0.207745E-08 tol =   0.100000E-10
 Iteration #         21
 delta_qm =   0.147606E-05 delta_en =   0.167388E-08 tol =   0.100000E-10
 Iteration #         22
 delta_qm =   0.107436E-05 delta_en =   0.121834E-08 tol =   0.100000E-10
 Iteration #         23
 delta_qm =   0.791132E-06 delta_en =   0.897162E-09 tol =   0.100000E-10
 Iteration #         24
 delta_qm =   0.603527E-06 delta_en =   0.684413E-09 tol =   0.100000E-10
 Iteration #         25
 delta_qm =   0.437005E-06 delta_en =   0.495573E-09 tol =   0.100000E-10
 Iteration #         26
 delta_qm =   0.318653E-06 delta_en =   0.361360E-09 tol =   0.100000E-10
 Iteration #         27
 delta_qm =   0.250635E-06 delta_en =   0.284226E-09 tol =   0.100000E-10
 Iteration #         28
 delta_qm =   0.191434E-06 delta_en =   0.217090E-09 tol =   0.100000E-10
 Iteration #         29
 delta_qm =   0.136824E-06 delta_en =   0.155161E-09 tol =   0.100000E-10
 Iteration #         30
 delta_qm =   0.988751E-07 delta_en =   0.112127E-09 tol =   0.100000E-10
 Iteration #         31
 delta_qm =   0.726551E-07 delta_en =   0.823925E-10 tol =   0.100000E-10
 Iteration #         32
 delta_qm =   0.518821E-07 delta_en =   0.588355E-10 tol =   0.100000E-10
 Iteration #         33
 delta_qm =   0.379077E-07 delta_en =   0.429882E-10 tol =   0.100000E-10
 Iteration #         34
 delta_qm =   0.289070E-07 delta_en =   0.327812E-10 tol =   0.100000E-10
 Iteration #         35
 delta_qm =   0.212605E-07 delta_en =   0.241099E-10 tol =   0.100000E-10
 Iteration #         36
 delta_qm =   0.150440E-07 delta_en =   0.170602E-10 tol =   0.100000E-10
 Iteration #         37
 delta_qm =   0.108562E-07 delta_en =   0.123112E-10 tol =   0.100000E-10
 Iteration #         38
 delta_qm =   0.780358E-08 delta_en =   0.884944E-11 tol =   0.100000E-10
 Charges are converged, EXIT

%%%% DENSITY %%%%%%%%%%%%%%%%%%%%%%%%%%%%%%%%%%%%%%%%%%%%%%%%%%%%%%%%%%%%%%%%%%%
 density label              = velectrostatic                                                                  
 integral of density        =     -1397.952945    

%%%% CHARGES %%%%%%%%%%%%%%%%%%%%%%%%%%%%%%%%%%%%%%%%%%%%%%%%%%%%%%%%%%%%%%%%%%%
 total number of charges    =        100
 total charge               =      0.0000000

%%%% DENSITY %%%%%%%%%%%%%%%%%%%%%%%%%%%%%%%%%%%%%%%%%%%%%%%%%%%%%%%%%%%%%%%%%%%
 density label              = vsoftcavity                                                                     
 integral of density        =      163.4615232    

%%%% ELECTRONS %%%%%%%%%%%%%%%%%%%%%%%%%%%%%%%%%%%%%%%%%%%%%%%%%%%%%%%%%%%%%%%%%
 number of electrons        =         90
 total electronic charge    =     90.0000000

%%%% BOUNDARY %%%%%%%%%%%%%%%%%%%%%%%%%%%%%%%%%%%%%%%%%%%%%%%%%%%%%%%%%%%%%%%%%%
 boundary label             = solvent              
 boundary mode              = full                 
 boundary is built as a function of a smooth density
 function type              =  1 
 using the optimal SCCS function with parameters 
 rhomax                     =      0.0050000 
 rhomin                     =      0.0001000 
 volume of the QM region    =   1497.1086555 
 surface of the QM region   =    274.0516172 

%%%% DIELECTRIC %%%%%%%%%%%%%%%%%%%%%%%%%%%%%%%%%%%%%%%%%%%%%%%%%%%%%%%%%%%%%%%%%
 dielectric build on homogeneous background
 environment bulk permitt.  =    100.0000000 
 dielectric flags
 need gradient              =  F 
 need factor depend. sqrt   =  F 
 total dielectric charge    =      0.0000137

%%%% DENSITY %%%%%%%%%%%%%%%%%%%%%%%%%%%%%%%%%%%%%%%%%%%%%%%%%%%%%%%%%%%%%%%%%%%
 density label              = vreference                                                                      
 integral of density        =    -0.1511735485E-11

%%%% COMPUTE ELECTROSTATIC POTENTIAL %%%%%%%%%%%%%%%%%%%%%%%%%%%%%%%%%%%%%%%%%%%
 Starting from polarization: rhoiter =      0.282936 jellium =      0.000000
 Iteration #          1
 delta_qm =   0.173658E-03 delta_en =   0.196933E-06 tol =   0.100000E-10
 Iteration #          2
 delta_qm =   0.841454E-04 delta_en =   0.954228E-07 tol =   0.100000E-10
 Iteration #          3
 delta_qm =   0.686786E-04 delta_en =   0.778831E-07 tol =   0.100000E-10
 Iteration #          4
 delta_qm =   0.480698E-04 delta_en =   0.545123E-07 tol =   0.100000E-10
 Iteration #          5
 delta_qm =   0.316596E-04 delta_en =   0.359027E-07 tol =   0.100000E-10
 Iteration #          6
 delta_qm =   0.237103E-04 delta_en =   0.268880E-07 tol =   0.100000E-10
 Iteration #          7
 delta_qm =   0.178533E-04 delta_en =   0.202461E-07 tol =   0.100000E-10
 Iteration #          8
 delta_qm =   0.120685E-04 delta_en =   0.136859E-07 tol =   0.100000E-10
 Iteration #          9
 delta_qm =   0.844910E-05 delta_en =   0.958148E-08 tol =   0.100000E-10
 Iteration #         10
 delta_qm =   0.648652E-05 delta_en =   0.735586E-08 tol =   0.100000E-10
 Iteration #         11
 delta_qm =   0.455342E-05 delta_en =   0.516368E-08 tol =   0.100000E-10
 Iteration #         12
 delta_qm =   0.306192E-05 delta_en =   0.347229E-08 tol =   0.100000E-10
 Iteration #         13
 delta_qm =   0.241535E-05 delta_en =   0.273907E-08 tol =   0.100000E-10
 Iteration #         14
 delta_qm =   0.188050E-05 delta_en =   0.213253E-08 tol =   0.100000E-10
 Iteration #         15
 delta_qm =   0.128930E-05 delta_en =   0.146210E-08 tol =   0.100000E-10
 Iteration #         16
 delta_qm =   0.933723E-06 delta_en =   0.105886E-08 tol =   0.100000E-10
 Iteration #         17
 delta_qm =   0.730617E-06 delta_en =   0.828536E-09 tol =   0.100000E-10
 Iteration #         18
 delta_qm =   0.513831E-06 delta_en =   0.582696E-09 tol =   0.100000E-10
 Iteration #         19
 delta_qm =   0.356632E-06 delta_en =   0.404429E-09 tol =   0.100000E-10
 Iteration #         20
 delta_qm =   0.286852E-06 delta_en =   0.325297E-09 tol =   0.100000E-10
 Iteration #         21
 delta_qm =   0.221695E-06 delta_en =   0.251407E-09 tol =   0.100000E-10
 Iteration #         22
 delta_qm =   0.155353E-06 delta_en =   0.176174E-09 tol =   0.100000E-10
 Iteration #         23
 delta_qm =   0.114706E-06 delta_en =   0.130079E-09 tol =   0.100000E-10
 Iteration #         24
 delta_qm =   0.869146E-07 delta_en =   0.985631E-10 tol =   0.100000E-10
 Iteration #         25
 delta_qm =   0.604961E-07 delta_en =   0.686040E-10 tol =   0.100000E-10
 Iteration #         26
 delta_qm =   0.434958E-07 delta_en =   0.493252E-10 tol =   0.100000E-10
 Iteration #         27
 delta_qm =   0.345213E-07 delta_en =   0.391479E-10 tol =   0.100000E-10
 Iteration #         28
 delta_qm =   0.256217E-07 delta_en =   0.290556E-10 tol =   0.100000E-10
 Iteration #         29
 delta_qm =   0.176430E-07 delta_en =   0.200076E-10 tol =   0.100000E-10
 Iteration #         30
 delta_qm =   0.128535E-07 delta_en =   0.145761E-10 tol =   0.100000E-10
 Iteration #         31
 delta_qm =   0.954624E-08 delta_en =   0.108257E-10 tol =   0.100000E-10
 Iteration #         32
 delta_qm =   0.673882E-08 delta_en =   0.764198E-11 tol =   0.100000E-10
 Charges are converged, EXIT

%%%% DENSITY %%%%%%%%%%%%%%%%%%%%%%%%%%%%%%%%%%%%%%%%%%%%%%%%%%%%%%%%%%%%%%%%%%%
 density label              = velectrostatic                                                                  
 integral of density        =     -1391.593329    

%%%% CHARGES %%%%%%%%%%%%%%%%%%%%%%%%%%%%%%%%%%%%%%%%%%%%%%%%%%%%%%%%%%%%%%%%%%%
 total number of charges    =        100
 total charge               =      0.0000000

%%%% DENSITY %%%%%%%%%%%%%%%%%%%%%%%%%%%%%%%%%%%%%%%%%%%%%%%%%%%%%%%%%%%%%%%%%%%
 density label              = vsoftcavity                                                                     
 integral of density        =      110.4654305    

%%%% ELECTRONS %%%%%%%%%%%%%%%%%%%%%%%%%%%%%%%%%%%%%%%%%%%%%%%%%%%%%%%%%%%%%%%%%
 number of electrons        =         90
 total electronic charge    =     90.0000000

%%%% BOUNDARY %%%%%%%%%%%%%%%%%%%%%%%%%%%%%%%%%%%%%%%%%%%%%%%%%%%%%%%%%%%%%%%%%%
 boundary label             = solvent              
 boundary mode              = full                 
 boundary is built as a function of a smooth density
 function type              =  1 
 using the optimal SCCS function with parameters 
 rhomax                     =      0.0050000 
 rhomin                     =      0.0001000 
 volume of the QM region    =   1486.6254509 
 surface of the QM region   =    259.3900600 

%%%% DIELECTRIC %%%%%%%%%%%%%%%%%%%%%%%%%%%%%%%%%%%%%%%%%%%%%%%%%%%%%%%%%%%%%%%%%
 dielectric build on homogeneous background
 environment bulk permitt.  =    100.0000000 
 dielectric flags
 need gradient              =  F 
 need factor depend. sqrt   =  F 
 total dielectric charge    =      0.0000181

%%%% DENSITY %%%%%%%%%%%%%%%%%%%%%%%%%%%%%%%%%%%%%%%%%%%%%%%%%%%%%%%%%%%%%%%%%%%
 density label              = vreference                                                                      
 integral of density        =     0.2397872596E-11

%%%% COMPUTE ELECTROSTATIC POTENTIAL %%%%%%%%%%%%%%%%%%%%%%%%%%%%%%%%%%%%%%%%%%%
 Starting from polarization: rhoiter =      0.279612 jellium =      0.000000
 Iteration #          1
 delta_qm =   0.179487E-03 delta_en =   0.203542E-06 tol =   0.100000E-10
 Iteration #          2
 delta_qm =   0.917427E-04 delta_en =   0.104038E-06 tol =   0.100000E-10
 Iteration #          3
 delta_qm =   0.697033E-04 delta_en =   0.790452E-07 tol =   0.100000E-10
 Iteration #          4
 delta_qm =   0.498610E-04 delta_en =   0.565436E-07 tol =   0.100000E-10
 Iteration #          5
 delta_qm =   0.335389E-04 delta_en =   0.380339E-07 tol =   0.100000E-10
 Iteration #          6
 delta_qm =   0.238682E-04 delta_en =   0.270671E-07 tol =   0.100000E-10
 Iteration #          7
 delta_qm =   0.174071E-04 delta_en =   0.197400E-07 tol =   0.100000E-10
 Iteration #          8
 delta_qm =   0.121140E-04 delta_en =   0.137375E-07 tol =   0.100000E-10
 Iteration #          9
 delta_qm =   0.853806E-05 delta_en =   0.968236E-08 tol =   0.100000E-10
 Iteration #         10
 delta_qm =   0.616183E-05 delta_en =   0.698766E-08 tol =   0.100000E-10
 Iteration #         11
 delta_qm =   0.428797E-05 delta_en =   0.486266E-08 tol =   0.100000E-10
 Iteration #         12
 delta_qm =   0.314636E-05 delta_en =   0.356805E-08 tol =   0.100000E-10
 Iteration #         13
 delta_qm =   0.250342E-05 delta_en =   0.283894E-08 tol =   0.100000E-10
 Iteration #         14
 delta_qm =   0.187640E-05 delta_en =   0.212788E-08 tol =   0.100000E-10
 Iteration #         15
 delta_qm =   0.134797E-05 delta_en =   0.152863E-08 tol =   0.100000E-10
 Iteration #         16
 delta_qm =   0.102555E-05 delta_en =   0.116300E-08 tol =   0.100000E-10
 Iteration #         17
 delta_qm =   0.767998E-06 delta_en =   0.870927E-09 tol =   0.100000E-10
 Iteration #         18
 delta_qm =   0.545823E-06 delta_en =   0.618976E-09 tol =   0.100000E-10
 Iteration #         19
 delta_qm =   0.419331E-06 delta_en =   0.475531E-09 tol =   0.100000E-10
 Iteration #         20
 delta_qm =   0.339965E-06 delta_en =   0.385528E-09 tol =   0.100000E-10
 Iteration #         21
 delta_qm =   0.256177E-06 delta_en =   0.290510E-09 tol =   0.100000E-10
 Iteration #         22
 delta_qm =   0.185622E-06 delta_en =   0.210499E-09 tol =   0.100000E-10
 Iteration #         23
 delta_qm =   0.139090E-06 delta_en =   0.157732E-09 tol =   0.100000E-10
 Iteration #         24
 delta_qm =   0.102854E-06 delta_en =   0.116639E-09 tol =   0.100000E-10
 Iteration #         25
 delta_qm =   0.741214E-07 delta_en =   0.840553E-10 tol =   0.100000E-10
 Iteration #         26
 delta_qm =   0.559624E-07 delta_en =   0.634626E-10 tol =   0.100000E-10
 Iteration #         27
 delta_qm =   0.430356E-07 delta_en =   0.488033E-10 tol =   0.100000E-10
 Iteration #         28
 delta_qm =   0.314792E-07 delta_en =   0.356982E-10 tol =   0.100000E-10
 Iteration #         29
 delta_qm =   0.225617E-07 delta_en =   0.255855E-10 tol =   0.100000E-10
 Iteration #         30
 delta_qm =   0.164323E-07 delta_en =   0.186346E-10 tol =   0.100000E-10
 Iteration #         31
 delta_qm =   0.118008E-07 delta_en =   0.133823E-10 tol =   0.100000E-10
 Iteration #         32
 delta_qm =   0.846411E-08 delta_en =   0.959849E-11 tol =   0.100000E-10
 Charges are converged, EXIT

%%%% DENSITY %%%%%%%%%%%%%%%%%%%%%%%%%%%%%%%%%%%%%%%%%%%%%%%%%%%%%%%%%%%%%%%%%%%
 density label              = velectrostatic                                                                  
 integral of density        =     -1370.801567    

%%%% CHARGES %%%%%%%%%%%%%%%%%%%%%%%%%%%%%%%%%%%%%%%%%%%%%%%%%%%%%%%%%%%%%%%%%%%
 total number of charges    =        100
 total charge               =      0.0000000

%%%% DENSITY %%%%%%%%%%%%%%%%%%%%%%%%%%%%%%%%%%%%%%%%%%%%%%%%%%%%%%%%%%%%%%%%%%%
 density label              = vsoftcavity                                                                     
 integral of density        =      13.79831894    

%%%% ELECTRONS %%%%%%%%%%%%%%%%%%%%%%%%%%%%%%%%%%%%%%%%%%%%%%%%%%%%%%%%%%%%%%%%%
 number of electrons        =         90
 total electronic charge    =     90.0000000

%%%% BOUNDARY %%%%%%%%%%%%%%%%%%%%%%%%%%%%%%%%%%%%%%%%%%%%%%%%%%%%%%%%%%%%%%%%%%
 boundary label             = solvent              
 boundary mode              = full                 
 boundary is built as a function of a smooth density
 function type              =  1 
 using the optimal SCCS function with parameters 
 rhomax                     =      0.0050000 
 rhomin                     =      0.0001000 
 volume of the QM region    =   1475.3731679 
 surface of the QM region   =    258.1664371 

%%%% DIELECTRIC %%%%%%%%%%%%%%%%%%%%%%%%%%%%%%%%%%%%%%%%%%%%%%%%%%%%%%%%%%%%%%%%%
 dielectric build on homogeneous background
 environment bulk permitt.  =    100.0000000 
 dielectric flags
 need gradient              =  F 
 need factor depend. sqrt   =  F 
 total dielectric charge    =     -0.0000026

%%%% DENSITY %%%%%%%%%%%%%%%%%%%%%%%%%%%%%%%%%%%%%%%%%%%%%%%%%%%%%%%%%%%%%%%%%%%
 density label              = vreference                                                                      
 integral of density        =     0.3258480324E-11

%%%% COMPUTE ELECTROSTATIC POTENTIAL %%%%%%%%%%%%%%%%%%%%%%%%%%%%%%%%%%%%%%%%%%%
 Starting from polarization: rhoiter =      0.272893 jellium =      0.000000
 Iteration #          1
 delta_qm =   0.117993E-03 delta_en =   0.133806E-06 tol =   0.100000E-10
 Iteration #          2
 delta_qm =   0.634628E-04 delta_en =   0.719683E-07 tol =   0.100000E-10
 Iteration #          3
 delta_qm =   0.493728E-04 delta_en =   0.559899E-07 tol =   0.100000E-10
 Iteration #          4
 delta_qm =   0.331591E-04 delta_en =   0.376032E-07 tol =   0.100000E-10
 Iteration #          5
 delta_qm =   0.221544E-04 delta_en =   0.251236E-07 tol =   0.100000E-10
 Iteration #          6
 delta_qm =   0.163078E-04 delta_en =   0.184934E-07 tol =   0.100000E-10
 Iteration #          7
 delta_qm =   0.118403E-04 delta_en =   0.134272E-07 tol =   0.100000E-10
 Iteration #          8
 delta_qm =   0.819034E-05 delta_en =   0.928803E-08 tol =   0.100000E-10
 Iteration #          9
 delta_qm =   0.595756E-05 delta_en =   0.675602E-08 tol =   0.100000E-10
 Iteration #         10
 delta_qm =   0.453212E-05 delta_en =   0.513953E-08 tol =   0.100000E-10
 Iteration #         11
 delta_qm =   0.339360E-05 delta_en =   0.384842E-08 tol =   0.100000E-10
 Iteration #         12
 delta_qm =   0.267676E-05 delta_en =   0.303551E-08 tol =   0.100000E-10
 Iteration #         13
 delta_qm =   0.219193E-05 delta_en =   0.248570E-08 tol =   0.100000E-10
 Iteration #         14
 delta_qm =   0.171333E-05 delta_en =   0.194296E-08 tol =   0.100000E-10
 Iteration #         15
 delta_qm =   0.131357E-05 delta_en =   0.148962E-08 tol =   0.100000E-10
 Iteration #         16
 delta_qm =   0.102477E-05 delta_en =   0.116211E-08 tol =   0.100000E-10
 Iteration #         17
 delta_qm =   0.782063E-06 delta_en =   0.886878E-09 tol =   0.100000E-10
 Iteration #         18
 delta_qm =   0.589526E-06 delta_en =   0.668536E-09 tol =   0.100000E-10
 Iteration #         19
 delta_qm =   0.465560E-06 delta_en =   0.527956E-09 tol =   0.100000E-10
 Iteration #         20
 delta_qm =   0.373357E-06 delta_en =   0.423395E-09 tol =   0.100000E-10
 Iteration #         21
 delta_qm =   0.287693E-06 delta_en =   0.326251E-09 tol =   0.100000E-10
 Iteration #         22
 delta_qm =   0.215528E-06 delta_en =   0.244413E-09 tol =   0.100000E-10
 Iteration #         23
 delta_qm =   0.161003E-06 delta_en =   0.182581E-09 tol =   0.100000E-10
 Iteration #         24
 delta_qm =   0.119924E-06 delta_en =   0.135997E-09 tol =   0.100000E-10
 Iteration #         25
 delta_qm =   0.898964E-07 delta_en =   0.101945E-09 tol =   0.100000E-10
 Iteration #         26
 delta_qm =   0.681035E-07 delta_en =   0.772309E-10 tol =   0.100000E-10
 Iteration #         27
 delta_qm =   0.506954E-07 delta_en =   0.574898E-10 tol =   0.100000E-10
 Iteration #         28
 delta_qm =   0.368289E-07 delta_en =   0.417648E-10 tol =   0.100000E-10
 Iteration #         29
 delta_qm =   0.270636E-07 delta_en =   0.306908E-10 tol =   0.100000E-10
 Iteration #         30
 delta_qm =   0.202989E-07 delta_en =   0.230194E-10 tol =   0.100000E-10
 Iteration #         31
 delta_qm =   0.150335E-07 delta_en =   0.170483E-10 tol =   0.100000E-10
 Iteration #         32
 delta_qm =   0.109313E-07 delta_en =   0.123963E-10 tol =   0.100000E-10
 Iteration #         33
 delta_qm =   0.801803E-08 delta_en =   0.909263E-11 tol =   0.100000E-10
 Charges are converged, EXIT

%%%% DENSITY %%%%%%%%%%%%%%%%%%%%%%%%%%%%%%%%%%%%%%%%%%%%%%%%%%%%%%%%%%%%%%%%%%%
 density label              = velectrostatic                                                                  
 integral of density        =     -1352.803093    

%%%% CHARGES %%%%%%%%%%%%%%%%%%%%%%%%%%%%%%%%%%%%%%%%%%%%%%%%%%%%%%%%%%%%%%%%%%%
 total number of charges    =        100
 total charge               =     -0.0000000

%%%% DENSITY %%%%%%%%%%%%%%%%%%%%%%%%%%%%%%%%%%%%%%%%%%%%%%%%%%%%%%%%%%%%%%%%%%%
 density label              = vsoftcavity                                                                     
 integral of density        =      4.389560683    

%%%% ELECTRONS %%%%%%%%%%%%%%%%%%%%%%%%%%%%%%%%%%%%%%%%%%%%%%%%%%%%%%%%%%%%%%%%%
 number of electrons        =         90
 total electronic charge    =     90.0000000

%%%% BOUNDARY %%%%%%%%%%%%%%%%%%%%%%%%%%%%%%%%%%%%%%%%%%%%%%%%%%%%%%%%%%%%%%%%%%
 boundary label             = solvent              
 boundary mode              = full                 
 boundary is built as a function of a smooth density
 function type              =  1 
 using the optimal SCCS function with parameters 
 rhomax                     =      0.0050000 
 rhomin                     =      0.0001000 
 volume of the QM region    =   1476.0854405 
 surface of the QM region   =    257.9791073 

%%%% DIELECTRIC %%%%%%%%%%%%%%%%%%%%%%%%%%%%%%%%%%%%%%%%%%%%%%%%%%%%%%%%%%%%%%%%%
 dielectric build on homogeneous background
 environment bulk permitt.  =    100.0000000 
 dielectric flags
 need gradient              =  F 
 need factor depend. sqrt   =  F 
 total dielectric charge    =      0.0000024

%%%% DENSITY %%%%%%%%%%%%%%%%%%%%%%%%%%%%%%%%%%%%%%%%%%%%%%%%%%%%%%%%%%%%%%%%%%%
 density label              = vreference                                                                      
 integral of density        =    -0.3405058100E-11

%%%% COMPUTE ELECTROSTATIC POTENTIAL %%%%%%%%%%%%%%%%%%%%%%%%%%%%%%%%%%%%%%%%%%%
 Starting from polarization: rhoiter =      0.267705 jellium =      0.000000
 Iteration #          1
 delta_qm =   0.435403E-04 delta_en =   0.493757E-07 tol =   0.100000E-10
 Iteration #          2
 delta_qm =   0.232562E-04 delta_en =   0.263731E-07 tol =   0.100000E-10
 Iteration #          3
 delta_qm =   0.138799E-04 delta_en =   0.157401E-07 tol =   0.100000E-10
 Iteration #          4
 delta_qm =   0.100551E-04 delta_en =   0.114027E-07 tol =   0.100000E-10
 Iteration #          5
 delta_qm =   0.686887E-05 delta_en =   0.778946E-08 tol =   0.100000E-10
 Iteration #          6
 delta_qm =   0.452123E-05 delta_en =   0.512718E-08 tol =   0.100000E-10
 Iteration #          7
 delta_qm =   0.319065E-05 delta_en =   0.361827E-08 tol =   0.100000E-10
 Iteration #          8
 delta_qm =   0.241433E-05 delta_en =   0.273790E-08 tol =   0.100000E-10
 Iteration #          9
 delta_qm =   0.181311E-05 delta_en =   0.205611E-08 tol =   0.100000E-10
 Iteration #         10
 delta_qm =   0.137645E-05 delta_en =   0.156093E-08 tol =   0.100000E-10
 Iteration #         11
 delta_qm =   0.110357E-05 delta_en =   0.125148E-08 tol =   0.100000E-10
 Iteration #         12
 delta_qm =   0.907766E-06 delta_en =   0.102943E-08 tol =   0.100000E-10
 Iteration #         13
 delta_qm =   0.740920E-06 delta_en =   0.840220E-09 tol =   0.100000E-10
 Iteration #         14
 delta_qm =   0.605859E-06 delta_en =   0.687059E-09 tol =   0.100000E-10
 Iteration #         15
 delta_qm =   0.501409E-06 delta_en =   0.568609E-09 tol =   0.100000E-10
 Iteration #         16
 delta_qm =   0.413112E-06 delta_en =   0.468479E-09 tol =   0.100000E-10
 Iteration #         17
 delta_qm =   0.333603E-06 delta_en =   0.378313E-09 tol =   0.100000E-10
 Iteration #         18
 delta_qm =   0.265382E-06 delta_en =   0.300949E-09 tol =   0.100000E-10
 Iteration #         19
 delta_qm =   0.209997E-06 delta_en =   0.238142E-09 tol =   0.100000E-10
 Iteration #         20
 delta_qm =   0.164787E-06 delta_en =   0.186872E-09 tol =   0.100000E-10
 Iteration #         21
 delta_qm =   0.127487E-06 delta_en =   0.144573E-09 tol =   0.100000E-10
 Iteration #         22
 delta_qm =   0.978418E-07 delta_en =   0.110955E-09 tol =   0.100000E-10
 Iteration #         23
 delta_qm =   0.752415E-07 delta_en =   0.853256E-10 tol =   0.100000E-10
 Iteration #         24
 delta_qm =   0.578509E-07 delta_en =   0.656043E-10 tol =   0.100000E-10
 Iteration #         25
 delta_qm =   0.440130E-07 delta_en =   0.499118E-10 tol =   0.100000E-10
 Iteration #         26
 delta_qm =   0.330170E-07 delta_en =   0.374421E-10 tol =   0.100000E-10
 Iteration #         27
 delta_qm =   0.245753E-07 delta_en =   0.278689E-10 tol =   0.100000E-10
 Iteration #         28
 delta_qm =   0.182774E-07 delta_en =   0.207270E-10 tol =   0.100000E-10
 Iteration #         29
 delta_qm =   0.135752E-07 delta_en =   0.153946E-10 tol =   0.100000E-10
 Iteration #         30
 delta_qm =   0.100062E-07 delta_en =   0.113473E-10 tol =   0.100000E-10
 Iteration #         31
 delta_qm =   0.730159E-08 delta_en =   0.828017E-11 tol =   0.100000E-10
 Charges are converged, EXIT

%%%% DENSITY %%%%%%%%%%%%%%%%%%%%%%%%%%%%%%%%%%%%%%%%%%%%%%%%%%%%%%%%%%%%%%%%%%%
 density label              = velectrostatic                                                                  
 integral of density        =     -1365.257773    

%%%% CHARGES %%%%%%%%%%%%%%%%%%%%%%%%%%%%%%%%%%%%%%%%%%%%%%%%%%%%%%%%%%%%%%%%%%%
 total number of charges    =        100
 total charge               =     -0.0000000

%%%% DENSITY %%%%%%%%%%%%%%%%%%%%%%%%%%%%%%%%%%%%%%%%%%%%%%%%%%%%%%%%%%%%%%%%%%%
 density label              = vsoftcavity                                                                     
 integral of density        =      7.105266961    

%%%% ELECTRONS %%%%%%%%%%%%%%%%%%%%%%%%%%%%%%%%%%%%%%%%%%%%%%%%%%%%%%%%%%%%%%%%%
 number of electrons        =         90
 total electronic charge    =     90.0000000

%%%% BOUNDARY %%%%%%%%%%%%%%%%%%%%%%%%%%%%%%%%%%%%%%%%%%%%%%%%%%%%%%%%%%%%%%%%%%
 boundary label             = solvent              
 boundary mode              = full                 
 boundary is built as a function of a smooth density
 function type              =  1 
 using the optimal SCCS function with parameters 
 rhomax                     =      0.0050000 
 rhomin                     =      0.0001000 
 volume of the QM region    =   1474.4205165 
 surface of the QM region   =    257.1142826 

%%%% DIELECTRIC %%%%%%%%%%%%%%%%%%%%%%%%%%%%%%%%%%%%%%%%%%%%%%%%%%%%%%%%%%%%%%%%%
 dielectric build on homogeneous background
 environment bulk permitt.  =    100.0000000 
 dielectric flags
 need gradient              =  F 
 need factor depend. sqrt   =  F 
 total dielectric charge    =     -0.0000016

%%%% DENSITY %%%%%%%%%%%%%%%%%%%%%%%%%%%%%%%%%%%%%%%%%%%%%%%%%%%%%%%%%%%%%%%%%%%
 density label              = vreference                                                                      
 integral of density        =    -0.1929349576E-11

%%%% COMPUTE ELECTROSTATIC POTENTIAL %%%%%%%%%%%%%%%%%%%%%%%%%%%%%%%%%%%%%%%%%%%
 Starting from polarization: rhoiter =      0.268756 jellium =      0.000000
 Iteration #          1
 delta_qm =   0.493633E-04 delta_en =   0.559792E-07 tol =   0.100000E-10
 Iteration #          2
 delta_qm =   0.266007E-04 delta_en =   0.301658E-07 tol =   0.100000E-10
 Iteration #          3
 delta_qm =   0.176438E-04 delta_en =   0.200085E-07 tol =   0.100000E-10
 Iteration #          4
 delta_qm =   0.127599E-04 delta_en =   0.144701E-07 tol =   0.100000E-10
 Iteration #          5
 delta_qm =   0.865862E-05 delta_en =   0.981907E-08 tol =   0.100000E-10
 Iteration #          6
 delta_qm =   0.571726E-05 delta_en =   0.648351E-08 tol =   0.100000E-10
 Iteration #          7
 delta_qm =   0.407855E-05 delta_en =   0.462517E-08 tol =   0.100000E-10
 Iteration #          8
 delta_qm =   0.308708E-05 delta_en =   0.350082E-08 tol =   0.100000E-10
 Iteration #          9
 delta_qm =   0.217596E-05 delta_en =   0.246759E-08 tol =   0.100000E-10
 Iteration #         10
 delta_qm =   0.147105E-05 delta_en =   0.166820E-08 tol =   0.100000E-10
 Iteration #         11
 delta_qm =   0.110495E-05 delta_en =   0.125304E-08 tol =   0.100000E-10
 Iteration #         12
 delta_qm =   0.882410E-06 delta_en =   0.100067E-08 tol =   0.100000E-10
 Iteration #         13
 delta_qm =   0.673215E-06 delta_en =   0.763441E-09 tol =   0.100000E-10
 Iteration #         14
 delta_qm =   0.515208E-06 delta_en =   0.584258E-09 tol =   0.100000E-10
 Iteration #         15
 delta_qm =   0.419004E-06 delta_en =   0.475160E-09 tol =   0.100000E-10
 Iteration #         16
 delta_qm =   0.342281E-06 delta_en =   0.388154E-09 tol =   0.100000E-10
 Iteration #         17
 delta_qm =   0.269352E-06 delta_en =   0.305452E-09 tol =   0.100000E-10
 Iteration #         18
 delta_qm =   0.208151E-06 delta_en =   0.236048E-09 tol =   0.100000E-10
 Iteration #         19
 delta_qm =   0.161846E-06 delta_en =   0.183537E-09 tol =   0.100000E-10
 Iteration #         20
 delta_qm =   0.127160E-06 delta_en =   0.144202E-09 tol =   0.100000E-10
 Iteration #         21
 delta_qm =   0.100533E-06 delta_en =   0.114007E-09 tol =   0.100000E-10
 Iteration #         22
 delta_qm =   0.791675E-07 delta_en =   0.897778E-10 tol =   0.100000E-10
 Iteration #         23
 delta_qm =   0.613680E-07 delta_en =   0.695927E-10 tol =   0.100000E-10
 Iteration #         24
 delta_qm =   0.467295E-07 delta_en =   0.529923E-10 tol =   0.100000E-10
 Iteration #         25
 delta_qm =   0.352230E-07 delta_en =   0.399437E-10 tol =   0.100000E-10
 Iteration #         26
 delta_qm =   0.265045E-07 delta_en =   0.300567E-10 tol =   0.100000E-10
 Iteration #         27
 delta_qm =   0.199322E-07 delta_en =   0.226036E-10 tol =   0.100000E-10
 Iteration #         28
 delta_qm =   0.148771E-07 delta_en =   0.168710E-10 tol =   0.100000E-10
 Iteration #         29
 delta_qm =   0.109853E-07 delta_en =   0.124576E-10 tol =   0.100000E-10
 Iteration #         30
 delta_qm =   0.811376E-08 delta_en =   0.920120E-11 tol =   0.100000E-10
 Charges are converged, EXIT

%%%% DENSITY %%%%%%%%%%%%%%%%%%%%%%%%%%%%%%%%%%%%%%%%%%%%%%%%%%%%%%%%%%%%%%%%%%%
 density label              = velectrostatic                                                                  
 integral of density        =     -1364.139326    

%%%% CHARGES %%%%%%%%%%%%%%%%%%%%%%%%%%%%%%%%%%%%%%%%%%%%%%%%%%%%%%%%%%%%%%%%%%%
 total number of charges    =        100
 total charge               =     -0.0000000

%%%% DENSITY %%%%%%%%%%%%%%%%%%%%%%%%%%%%%%%%%%%%%%%%%%%%%%%%%%%%%%%%%%%%%%%%%%%
 density label              = vsoftcavity                                                                     
 integral of density        =      8.446785222    

%%%% ELECTRONS %%%%%%%%%%%%%%%%%%%%%%%%%%%%%%%%%%%%%%%%%%%%%%%%%%%%%%%%%%%%%%%%%
 number of electrons        =         90
 total electronic charge    =     90.0000000

%%%% BOUNDARY %%%%%%%%%%%%%%%%%%%%%%%%%%%%%%%%%%%%%%%%%%%%%%%%%%%%%%%%%%%%%%%%%%
 boundary label             = solvent              
 boundary mode              = full                 
 boundary is built as a function of a smooth density
 function type              =  1 
 using the optimal SCCS function with parameters 
 rhomax                     =      0.0050000 
 rhomin                     =      0.0001000 
 volume of the QM region    =   1468.8850105 
 surface of the QM region   =    257.6899109 

%%%% DIELECTRIC %%%%%%%%%%%%%%%%%%%%%%%%%%%%%%%%%%%%%%%%%%%%%%%%%%%%%%%%%%%%%%%%%
 dielectric build on homogeneous background
 environment bulk permitt.  =    100.0000000 
 dielectric flags
 need gradient              =  F 
 need factor depend. sqrt   =  F 
 total dielectric charge    =     -0.0000022

%%%% DENSITY %%%%%%%%%%%%%%%%%%%%%%%%%%%%%%%%%%%%%%%%%%%%%%%%%%%%%%%%%%%%%%%%%%%
 density label              = vreference                                                                      
 integral of density        =     0.2814780183E-11

%%%% COMPUTE ELECTROSTATIC POTENTIAL %%%%%%%%%%%%%%%%%%%%%%%%%%%%%%%%%%%%%%%%%%%
 Starting from polarization: rhoiter =      0.268880 jellium =      0.000000
 Iteration #          1
 delta_qm =   0.557313E-04 delta_en =   0.632006E-07 tol =   0.100000E-10
 Iteration #          2
 delta_qm =   0.332186E-04 delta_en =   0.376706E-07 tol =   0.100000E-10
 Iteration #          3
 delta_qm =   0.293313E-04 delta_en =   0.332624E-07 tol =   0.100000E-10
 Iteration #          4
 delta_qm =   0.183620E-04 delta_en =   0.208229E-07 tol =   0.100000E-10
 Iteration #          5
 delta_qm =   0.119302E-04 delta_en =   0.135292E-07 tol =   0.100000E-10
 Iteration #          6
 delta_qm =   0.949288E-05 delta_en =   0.107651E-07 tol =   0.100000E-10
 Iteration #          7
 delta_qm =   0.667874E-05 delta_en =   0.757384E-08 tol =   0.100000E-10
 Iteration #          8
 delta_qm =   0.435621E-05 delta_en =   0.494005E-08 tol =   0.100000E-10
 Iteration #          9
 delta_qm =   0.333253E-05 delta_en =   0.377916E-08 tol =   0.100000E-10
 Iteration #         10
 delta_qm =   0.258033E-05 delta_en =   0.292616E-08 tol =   0.100000E-10
 Iteration #         11
 delta_qm =   0.176295E-05 delta_en =   0.199922E-08 tol =   0.100000E-10
 Iteration #         12
 delta_qm =   0.128115E-05 delta_en =   0.145286E-08 tol =   0.100000E-10
 Iteration #         13
 delta_qm =   0.101889E-05 delta_en =   0.115544E-08 tol =   0.100000E-10
 Iteration #         14
 delta_qm =   0.734385E-06 delta_en =   0.832810E-09 tol =   0.100000E-10
 Iteration #         15
 delta_qm =   0.525857E-06 delta_en =   0.596334E-09 tol =   0.100000E-10
 Iteration #         16
 delta_qm =   0.417060E-06 delta_en =   0.472956E-09 tol =   0.100000E-10
 Iteration #         17
 delta_qm =   0.304879E-06 delta_en =   0.345739E-09 tol =   0.100000E-10
 Iteration #         18
 delta_qm =   0.204859E-06 delta_en =   0.232315E-09 tol =   0.100000E-10
 Iteration #         19
 delta_qm =   0.161394E-06 delta_en =   0.183025E-09 tol =   0.100000E-10
 Iteration #         20
 delta_qm =   0.132896E-06 delta_en =   0.150707E-09 tol =   0.100000E-10
 Iteration #         21
 delta_qm =   0.958772E-07 delta_en =   0.108727E-09 tol =   0.100000E-10
 Iteration #         22
 delta_qm =   0.680156E-07 delta_en =   0.771312E-10 tol =   0.100000E-10
 Iteration #         23
 delta_qm =   0.530127E-07 delta_en =   0.601176E-10 tol =   0.100000E-10
 Iteration #         24
 delta_qm =   0.406641E-07 delta_en =   0.461140E-10 tol =   0.100000E-10
 Iteration #         25
 delta_qm =   0.306553E-07 delta_en =   0.347638E-10 tol =   0.100000E-10
 Iteration #         26
 delta_qm =   0.238616E-07 delta_en =   0.270596E-10 tol =   0.100000E-10
 Iteration #         27
 delta_qm =   0.177047E-07 delta_en =   0.200775E-10 tol =   0.100000E-10
 Iteration #         28
 delta_qm =   0.125477E-07 delta_en =   0.142294E-10 tol =   0.100000E-10
 Iteration #         29
 delta_qm =   0.982445E-08 delta_en =   0.111411E-10 tol =   0.100000E-10
 Iteration #         30
 delta_qm =   0.805803E-08 delta_en =   0.913799E-11 tol =   0.100000E-10
 Charges are converged, EXIT

%%%% DENSITY %%%%%%%%%%%%%%%%%%%%%%%%%%%%%%%%%%%%%%%%%%%%%%%%%%%%%%%%%%%%%%%%%%%
 density label              = velectrostatic                                                                  
 integral of density        =     -1348.250653    

%%%% CHARGES %%%%%%%%%%%%%%%%%%%%%%%%%%%%%%%%%%%%%%%%%%%%%%%%%%%%%%%%%%%%%%%%%%%
 total number of charges    =        100
 total charge               =      0.0000000

%%%% DENSITY %%%%%%%%%%%%%%%%%%%%%%%%%%%%%%%%%%%%%%%%%%%%%%%%%%%%%%%%%%%%%%%%%%%
 density label              = vsoftcavity                                                                     
 integral of density        =      4.905466158    

%%%% ELECTRONS %%%%%%%%%%%%%%%%%%%%%%%%%%%%%%%%%%%%%%%%%%%%%%%%%%%%%%%%%%%%%%%%%
 number of electrons        =         90
 total electronic charge    =     90.0000000

%%%% BOUNDARY %%%%%%%%%%%%%%%%%%%%%%%%%%%%%%%%%%%%%%%%%%%%%%%%%%%%%%%%%%%%%%%%%%
 boundary label             = solvent              
 boundary mode              = full                 
 boundary is built as a function of a smooth density
 function type              =  1 
 using the optimal SCCS function with parameters 
 rhomax                     =      0.0050000 
 rhomin                     =      0.0001000 
 volume of the QM region    =   1470.4481286 
 surface of the QM region   =    257.6376420 

%%%% DIELECTRIC %%%%%%%%%%%%%%%%%%%%%%%%%%%%%%%%%%%%%%%%%%%%%%%%%%%%%%%%%%%%%%%%%
 dielectric build on homogeneous background
 environment bulk permitt.  =    100.0000000 
 dielectric flags
 need gradient              =  F 
 need factor depend. sqrt   =  F 
 total dielectric charge    =     -0.0000001

%%%% DENSITY %%%%%%%%%%%%%%%%%%%%%%%%%%%%%%%%%%%%%%%%%%%%%%%%%%%%%%%%%%%%%%%%%%%
 density label              = vreference                                                                      
 integral of density        =    -0.3500824551E-11

%%%% COMPUTE ELECTROSTATIC POTENTIAL %%%%%%%%%%%%%%%%%%%%%%%%%%%%%%%%%%%%%%%%%%%
 Starting from polarization: rhoiter =      0.267036 jellium =      0.000000
 Iteration #          1
 delta_qm =   0.229974E-04 delta_en =   0.260796E-07 tol =   0.100000E-10
 Iteration #          2
 delta_qm =   0.115535E-04 delta_en =   0.131019E-07 tol =   0.100000E-10
 Iteration #          3
 delta_qm =   0.850926E-05 delta_en =   0.964969E-08 tol =   0.100000E-10
 Iteration #          4
 delta_qm =   0.650614E-05 delta_en =   0.737812E-08 tol =   0.100000E-10
 Iteration #          5
 delta_qm =   0.448245E-05 delta_en =   0.508320E-08 tol =   0.100000E-10
 Iteration #          6
 delta_qm =   0.311762E-05 delta_en =   0.353546E-08 tol =   0.100000E-10
 Iteration #          7
 delta_qm =   0.239332E-05 delta_en =   0.271408E-08 tol =   0.100000E-10
 Iteration #          8
 delta_qm =   0.170381E-05 delta_en =   0.193216E-08 tol =   0.100000E-10
 Iteration #          9
 delta_qm =   0.117799E-05 delta_en =   0.133586E-08 tol =   0.100000E-10
 Iteration #         10
 delta_qm =   0.966527E-06 delta_en =   0.109606E-08 tol =   0.100000E-10
 Iteration #         11
 delta_qm =   0.789549E-06 delta_en =   0.895366E-09 tol =   0.100000E-10
 Iteration #         12
 delta_qm =   0.574182E-06 delta_en =   0.651136E-09 tol =   0.100000E-10
 Iteration #         13
 delta_qm =   0.423652E-06 delta_en =   0.480432E-09 tol =   0.100000E-10
 Iteration #         14
 delta_qm =   0.330358E-06 delta_en =   0.374634E-09 tol =   0.100000E-10
 Iteration #         15
 delta_qm =   0.246585E-06 delta_en =   0.279634E-09 tol =   0.100000E-10
 Iteration #         16
 delta_qm =   0.186181E-06 delta_en =   0.211133E-09 tol =   0.100000E-10
 Iteration #         17
 delta_qm =   0.150292E-06 delta_en =   0.170435E-09 tol =   0.100000E-10
 Iteration #         18
 delta_qm =   0.117437E-06 delta_en =   0.133176E-09 tol =   0.100000E-10
 Iteration #         19
 delta_qm =   0.875268E-07 delta_en =   0.992574E-10 tol =   0.100000E-10
 Iteration #         20
 delta_qm =   0.666407E-07 delta_en =   0.755721E-10 tol =   0.100000E-10
 Iteration #         21
 delta_qm =   0.506155E-07 delta_en =   0.573991E-10 tol =   0.100000E-10
 Iteration #         22
 delta_qm =   0.369812E-07 delta_en =   0.419375E-10 tol =   0.100000E-10
 Iteration #         23
 delta_qm =   0.276889E-07 delta_en =   0.313998E-10 tol =   0.100000E-10
 Iteration #         24
 delta_qm =   0.216005E-07 delta_en =   0.244954E-10 tol =   0.100000E-10
 Iteration #         25
 delta_qm =   0.162836E-07 delta_en =   0.184660E-10 tol =   0.100000E-10
 Iteration #         26
 delta_qm =   0.117560E-07 delta_en =   0.133316E-10 tol =   0.100000E-10
 Iteration #         27
 delta_qm =   0.851923E-08 delta_en =   0.966100E-11 tol =   0.100000E-10
 Charges are converged, EXIT

%%%% DENSITY %%%%%%%%%%%%%%%%%%%%%%%%%%%%%%%%%%%%%%%%%%%%%%%%%%%%%%%%%%%%%%%%%%%
 density label              = velectrostatic                                                                  
 integral of density        =     -1354.880255    

%%%% CHARGES %%%%%%%%%%%%%%%%%%%%%%%%%%%%%%%%%%%%%%%%%%%%%%%%%%%%%%%%%%%%%%%%%%%
 total number of charges    =        100
 total charge               =      0.0000000

%%%% DENSITY %%%%%%%%%%%%%%%%%%%%%%%%%%%%%%%%%%%%%%%%%%%%%%%%%%%%%%%%%%%%%%%%%%%
 density label              = vsoftcavity                                                                     
 integral of density        =      5.274725611    

%%%% ELECTRONS %%%%%%%%%%%%%%%%%%%%%%%%%%%%%%%%%%%%%%%%%%%%%%%%%%%%%%%%%%%%%%%%%
 number of electrons        =         90
 total electronic charge    =     90.0000000

%%%% BOUNDARY %%%%%%%%%%%%%%%%%%%%%%%%%%%%%%%%%%%%%%%%%%%%%%%%%%%%%%%%%%%%%%%%%%
 boundary label             = solvent              
 boundary mode              = full                 
 boundary is built as a function of a smooth density
 function type              =  1 
 using the optimal SCCS function with parameters 
 rhomax                     =      0.0050000 
 rhomin                     =      0.0001000 
 volume of the QM region    =   1472.0772636 
 surface of the QM region   =    257.6148859 

%%%% DIELECTRIC %%%%%%%%%%%%%%%%%%%%%%%%%%%%%%%%%%%%%%%%%%%%%%%%%%%%%%%%%%%%%%%%%
 dielectric build on homogeneous background
 environment bulk permitt.  =    100.0000000 
 dielectric flags
 need gradient              =  F 
 need factor depend. sqrt   =  F 
 total dielectric charge    =      0.0000004

%%%% DENSITY %%%%%%%%%%%%%%%%%%%%%%%%%%%%%%%%%%%%%%%%%%%%%%%%%%%%%%%%%%%%%%%%%%%
 density label              = vreference                                                                      
 integral of density        =    -0.3891863084E-11

%%%% COMPUTE ELECTROSTATIC POTENTIAL %%%%%%%%%%%%%%%%%%%%%%%%%%%%%%%%%%%%%%%%%%%
 Starting from polarization: rhoiter =      0.267682 jellium =      0.000000
 Iteration #          1
 delta_qm =   0.171147E-04 delta_en =   0.194085E-07 tol =   0.100000E-10
 Iteration #          2
 delta_qm =   0.868053E-05 delta_en =   0.984392E-08 tol =   0.100000E-10
 Iteration #          3
 delta_qm =   0.751252E-05 delta_en =   0.851938E-08 tol =   0.100000E-10
 Iteration #          4
 delta_qm =   0.471838E-05 delta_en =   0.535075E-08 tol =   0.100000E-10
 Iteration #          5
 delta_qm =   0.314656E-05 delta_en =   0.356828E-08 tol =   0.100000E-10
 Iteration #          6
 delta_qm =   0.252194E-05 delta_en =   0.285994E-08 tol =   0.100000E-10
 Iteration #          7
 delta_qm =   0.185691E-05 delta_en =   0.210578E-08 tol =   0.100000E-10
 Iteration #          8
 delta_qm =   0.126428E-05 delta_en =   0.143372E-08 tol =   0.100000E-10
 Iteration #          9
 delta_qm =   0.958440E-06 delta_en =   0.108689E-08 tol =   0.100000E-10
 Iteration #         10
 delta_qm =   0.744900E-06 delta_en =   0.844734E-09 tol =   0.100000E-10
 Iteration #         11
 delta_qm =   0.534081E-06 delta_en =   0.605661E-09 tol =   0.100000E-10
 Iteration #         12
 delta_qm =   0.415329E-06 delta_en =   0.470993E-09 tol =   0.100000E-10
 Iteration #         13
 delta_qm =   0.354021E-06 delta_en =   0.401468E-09 tol =   0.100000E-10
 Iteration #         14
 delta_qm =   0.279949E-06 delta_en =   0.317468E-09 tol =   0.100000E-10
 Iteration #         15
 delta_qm =   0.211572E-06 delta_en =   0.239927E-09 tol =   0.100000E-10
 Iteration #         16
 delta_qm =   0.166111E-06 delta_en =   0.188374E-09 tol =   0.100000E-10
 Iteration #         17
 delta_qm =   0.128625E-06 delta_en =   0.145864E-09 tol =   0.100000E-10
 Iteration #         18
 delta_qm =   0.964670E-07 delta_en =   0.109396E-09 tol =   0.100000E-10
 Iteration #         19
 delta_qm =   0.754842E-07 delta_en =   0.856008E-10 tol =   0.100000E-10
 Iteration #         20
 delta_qm =   0.603729E-07 delta_en =   0.684643E-10 tol =   0.100000E-10
 Iteration #         21
 delta_qm =   0.460202E-07 delta_en =   0.521879E-10 tol =   0.100000E-10
 Iteration #         22
 delta_qm =   0.339983E-07 delta_en =   0.385549E-10 tol =   0.100000E-10
 Iteration #         23
 delta_qm =   0.253070E-07 delta_en =   0.286987E-10 tol =   0.100000E-10
 Iteration #         24
 delta_qm =   0.188287E-07 delta_en =   0.213522E-10 tol =   0.100000E-10
 Iteration #         25
 delta_qm =   0.141250E-07 delta_en =   0.160181E-10 tol =   0.100000E-10
 Iteration #         26
 delta_qm =   0.108679E-07 delta_en =   0.123245E-10 tol =   0.100000E-10
 Iteration #         27
 delta_qm =   0.824687E-08 delta_en =   0.935214E-11 tol =   0.100000E-10
 Charges are converged, EXIT

%%%% DENSITY %%%%%%%%%%%%%%%%%%%%%%%%%%%%%%%%%%%%%%%%%%%%%%%%%%%%%%%%%%%%%%%%%%%
 density label              = velectrostatic                                                                  
 integral of density        =     -1358.809859    

%%%% CHARGES %%%%%%%%%%%%%%%%%%%%%%%%%%%%%%%%%%%%%%%%%%%%%%%%%%%%%%%%%%%%%%%%%%%
 total number of charges    =        100
 total charge               =      0.0000000

%%%% DENSITY %%%%%%%%%%%%%%%%%%%%%%%%%%%%%%%%%%%%%%%%%%%%%%%%%%%%%%%%%%%%%%%%%%%
 density label              = vsoftcavity                                                                     
 integral of density        =      7.301990580    

%%%% ELECTRONS %%%%%%%%%%%%%%%%%%%%%%%%%%%%%%%%%%%%%%%%%%%%%%%%%%%%%%%%%%%%%%%%%
 number of electrons        =         90
 total electronic charge    =     90.0000000

%%%% BOUNDARY %%%%%%%%%%%%%%%%%%%%%%%%%%%%%%%%%%%%%%%%%%%%%%%%%%%%%%%%%%%%%%%%%%
 boundary label             = solvent              
 boundary mode              = full                 
 boundary is built as a function of a smooth density
 function type              =  1 
 using the optimal SCCS function with parameters 
 rhomax                     =      0.0050000 
 rhomin                     =      0.0001000 
 volume of the QM region    =   1471.1542253 
 surface of the QM region   =    257.6915501 

%%%% DIELECTRIC %%%%%%%%%%%%%%%%%%%%%%%%%%%%%%%%%%%%%%%%%%%%%%%%%%%%%%%%%%%%%%%%%
 dielectric build on homogeneous background
 environment bulk permitt.  =    100.0000000 
 dielectric flags
 need gradient              =  F 
 need factor depend. sqrt   =  F 
 total dielectric charge    =     -0.0000013

%%%% DENSITY %%%%%%%%%%%%%%%%%%%%%%%%%%%%%%%%%%%%%%%%%%%%%%%%%%%%%%%%%%%%%%%%%%%
 density label              = vreference                                                                      
 integral of density        =     0.3991553367E-11

%%%% COMPUTE ELECTROSTATIC POTENTIAL %%%%%%%%%%%%%%%%%%%%%%%%%%%%%%%%%%%%%%%%%%%
 Starting from polarization: rhoiter =      0.268682 jellium =      0.000000
 Iteration #          1
[...]
 Starting from polarization: rhoiter =      0.268432 jellium =      0.000000
 Iteration #          1
 delta_qm =   0.754678E-05 delta_en =   0.855823E-08 tol =   0.100000E-10
 Iteration #          2
 delta_qm =   0.404552E-05 delta_en =   0.458771E-08 tol =   0.100000E-10
 Iteration #          3
 delta_qm =   0.260972E-05 delta_en =   0.295949E-08 tol =   0.100000E-10
 Iteration #          4
 delta_qm =   0.174876E-05 delta_en =   0.198313E-08 tol =   0.100000E-10
 Iteration #          5
 delta_qm =   0.123061E-05 delta_en =   0.139554E-08 tol =   0.100000E-10
 Iteration #          6
 delta_qm =   0.851503E-06 delta_en =   0.965624E-09 tol =   0.100000E-10
 Iteration #          7
 delta_qm =   0.623972E-06 delta_en =   0.707598E-09 tol =   0.100000E-10
 Iteration #          8
 delta_qm =   0.470382E-06 delta_en =   0.533424E-09 tol =   0.100000E-10
 Iteration #          9
 delta_qm =   0.335189E-06 delta_en =   0.380112E-09 tol =   0.100000E-10
 Iteration #         10
 delta_qm =   0.245255E-06 delta_en =   0.278125E-09 tol =   0.100000E-10
 Iteration #         11
 delta_qm =   0.185997E-06 delta_en =   0.210925E-09 tol =   0.100000E-10
 Iteration #         12
 delta_qm =   0.136992E-06 delta_en =   0.155352E-09 tol =   0.100000E-10
 Iteration #         13
 delta_qm =   0.110219E-06 delta_en =   0.124991E-09 tol =   0.100000E-10
 Iteration #         14
 delta_qm =   0.971254E-07 delta_en =   0.110142E-09 tol =   0.100000E-10
 Iteration #         15
 delta_qm =   0.799909E-07 delta_en =   0.907115E-10 tol =   0.100000E-10
 Iteration #         16
 delta_qm =   0.615190E-07 delta_en =   0.697640E-10 tol =   0.100000E-10
 Iteration #         17
 delta_qm =   0.479054E-07 delta_en =   0.543259E-10 tol =   0.100000E-10
 Iteration #         18
 delta_qm =   0.379068E-07 delta_en =   0.429872E-10 tol =   0.100000E-10
 Iteration #         19
 delta_qm =   0.297976E-07 delta_en =   0.337911E-10 tol =   0.100000E-10
 Iteration #         20
 delta_qm =   0.236791E-07 delta_en =   0.268526E-10 tol =   0.100000E-10
 Iteration #         21
 delta_qm =   0.187835E-07 delta_en =   0.213009E-10 tol =   0.100000E-10
 Iteration #         22
 delta_qm =   0.145125E-07 delta_en =   0.164575E-10 tol =   0.100000E-10
 Iteration #         23
 delta_qm =   0.111410E-07 delta_en =   0.126341E-10 tol =   0.100000E-10
 Iteration #         24
 delta_qm =   0.862671E-08 delta_en =   0.978289E-11 tol =   0.100000E-10
 Charges are converged, EXIT

%%%% DENSITY %%%%%%%%%%%%%%%%%%%%%%%%%%%%%%%%%%%%%%%%%%%%%%%%%%%%%%%%%%%%%%%%%%%
 density label              = velectrostatic                                                                  
 integral of density        =     -1355.800233    

%%%% CHARGES %%%%%%%%%%%%%%%%%%%%%%%%%%%%%%%%%%%%%%%%%%%%%%%%%%%%%%%%%%%%%%%%%%%
 total number of charges    =        100
 total charge               =      0.0000000

%%%% DENSITY %%%%%%%%%%%%%%%%%%%%%%%%%%%%%%%%%%%%%%%%%%%%%%%%%%%%%%%%%%%%%%%%%%%
 density label              = vsoftcavity                                                                     
 integral of density        =      6.547640320    

%%%% ELECTRONS %%%%%%%%%%%%%%%%%%%%%%%%%%%%%%%%%%%%%%%%%%%%%%%%%%%%%%%%%%%%%%%%%
 number of electrons        =         90
 total electronic charge    =     90.0000000

%%%% BOUNDARY %%%%%%%%%%%%%%%%%%%%%%%%%%%%%%%%%%%%%%%%%%%%%%%%%%%%%%%%%%%%%%%%%%
 boundary label             = solvent              
 boundary mode              = full                 
 boundary is built as a function of a smooth density
 function type              =  1 
 using the optimal SCCS function with parameters 
 rhomax                     =      0.0050000 
 rhomin                     =      0.0001000 
 volume of the QM region    =   1470.6013388 
 surface of the QM region   =    257.8926983 

%%%% DIELECTRIC %%%%%%%%%%%%%%%%%%%%%%%%%%%%%%%%%%%%%%%%%%%%%%%%%%%%%%%%%%%%%%%%%
 dielectric build on homogeneous background
 environment bulk permitt.  =    100.0000000 
 dielectric flags
 need gradient              =  F 
 need factor depend. sqrt   =  F 
 total dielectric charge    =     -0.0000003

%%%% DENSITY %%%%%%%%%%%%%%%%%%%%%%%%%%%%%%%%%%%%%%%%%%%%%%%%%%%%%%%%%%%%%%%%%%%
 density label              = vreference                                                                      
 integral of density        =     0.3327665247E-11

%%%% COMPUTE ELECTROSTATIC POTENTIAL %%%%%%%%%%%%%%%%%%%%%%%%%%%%%%%%%%%%%%%%%%%
 Starting from polarization: rhoiter =      0.268428 jellium =      0.000000
 Iteration #          1
 delta_qm =   0.378884E-05 delta_en =   0.429663E-08 tol =   0.100000E-10
 Iteration #          2
 delta_qm =   0.220357E-05 delta_en =   0.249890E-08 tol =   0.100000E-10
 Iteration #          3
 delta_qm =   0.190678E-05 delta_en =   0.216233E-08 tol =   0.100000E-10
 Iteration #          4
 delta_qm =   0.126679E-05 delta_en =   0.143656E-08 tol =   0.100000E-10
 Iteration #          5
 delta_qm =   0.793582E-06 delta_en =   0.899940E-09 tol =   0.100000E-10
 Iteration #          6
 delta_qm =   0.627889E-06 delta_en =   0.712041E-09 tol =   0.100000E-10
 Iteration #          7
 delta_qm =   0.461722E-06 delta_en =   0.523603E-09 tol =   0.100000E-10
 Iteration #          8
 delta_qm =   0.298634E-06 delta_en =   0.338658E-09 tol =   0.100000E-10
 Iteration #          9
 delta_qm =   0.219380E-06 delta_en =   0.248782E-09 tol =   0.100000E-10
 Iteration #         10
 delta_qm =   0.173360E-06 delta_en =   0.196594E-09 tol =   0.100000E-10
 Iteration #         11
 delta_qm =   0.117204E-06 delta_en =   0.132912E-09 tol =   0.100000E-10
 Iteration #         12
 delta_qm =   0.801615E-07 delta_en =   0.909050E-10 tol =   0.100000E-10
 Iteration #         13
 delta_qm =   0.660912E-07 delta_en =   0.749490E-10 tol =   0.100000E-10
 Iteration #         14
 delta_qm =   0.491533E-07 delta_en =   0.557410E-10 tol =   0.100000E-10
 Iteration #         15
 delta_qm =   0.323204E-07 delta_en =   0.366521E-10 tol =   0.100000E-10
 Iteration #         16
 delta_qm =   0.245154E-07 delta_en =   0.278010E-10 tol =   0.100000E-10
 Iteration #         17
 delta_qm =   0.189338E-07 delta_en =   0.214713E-10 tol =   0.100000E-10
 Iteration #         18
 delta_qm =   0.124937E-07 delta_en =   0.141681E-10 tol =   0.100000E-10
 Iteration #         19
 delta_qm =   0.897757E-08 delta_en =   0.101808E-10 tol =   0.100000E-10
 Iteration #         20
 delta_qm =   0.742985E-08 delta_en =   0.842562E-11 tol =   0.100000E-10
 Charges are converged, EXIT

%%%% DENSITY %%%%%%%%%%%%%%%%%%%%%%%%%%%%%%%%%%%%%%%%%%%%%%%%%%%%%%%%%%%%%%%%%%%
 density label              = velectrostatic                                                                  
 integral of density        =     -1355.348877    

%%%% CHARGES %%%%%%%%%%%%%%%%%%%%%%%%%%%%%%%%%%%%%%%%%%%%%%%%%%%%%%%%%%%%%%%%%%%
 total number of charges    =        100
 total charge               =      0.0000000

%%%% DENSITY %%%%%%%%%%%%%%%%%%%%%%%%%%%%%%%%%%%%%%%%%%%%%%%%%%%%%%%%%%%%%%%%%%%
 density label              = vsoftcavity                                                                     
 integral of density        =      6.446002382    

%%%% ELECTRONS %%%%%%%%%%%%%%%%%%%%%%%%%%%%%%%%%%%%%%%%%%%%%%%%%%%%%%%%%%%%%%%%%
 number of electrons        =         90
 total electronic charge    =     90.0000000

%%%% BOUNDARY %%%%%%%%%%%%%%%%%%%%%%%%%%%%%%%%%%%%%%%%%%%%%%%%%%%%%%%%%%%%%%%%%%
 boundary label             = solvent              
 boundary mode              = full                 
 boundary is built as a function of a smooth density
 function type              =  1 
 using the optimal SCCS function with parameters 
 rhomax                     =      0.0050000 
 rhomin                     =      0.0001000 
 volume of the QM region    =   1470.7343402 
 surface of the QM region   =    257.9038969 

%%%% DIELECTRIC %%%%%%%%%%%%%%%%%%%%%%%%%%%%%%%%%%%%%%%%%%%%%%%%%%%%%%%%%%%%%%%%%
 dielectric build on homogeneous background
 environment bulk permitt.  =    100.0000000 
 dielectric flags
 need gradient              =  F 
 need factor depend. sqrt   =  F 
 total dielectric charge    =     -0.0000005

%%%% DENSITY %%%%%%%%%%%%%%%%%%%%%%%%%%%%%%%%%%%%%%%%%%%%%%%%%%%%%%%%%%%%%%%%%%%
 density label              = vreference                                                                      
 integral of density        =     0.4176875178E-12

%%%% COMPUTE ELECTROSTATIC POTENTIAL %%%%%%%%%%%%%%%%%%%%%%%%%%%%%%%%%%%%%%%%%%%
 Starting from polarization: rhoiter =      0.268444 jellium =      0.000000
 Iteration #          1
 delta_qm =   0.113530E-05 delta_en =   0.128746E-08 tol =   0.100000E-10
 Iteration #          2
 delta_qm =   0.650021E-06 delta_en =   0.737139E-09 tol =   0.100000E-10
 Iteration #          3
 delta_qm =   0.420674E-06 delta_en =   0.477054E-09 tol =   0.100000E-10
 Iteration #          4
 delta_qm =   0.331571E-06 delta_en =   0.376009E-09 tol =   0.100000E-10
 Iteration #          5
 delta_qm =   0.236162E-06 delta_en =   0.267813E-09 tol =   0.100000E-10
 Iteration #          6
 delta_qm =   0.162613E-06 delta_en =   0.184407E-09 tol =   0.100000E-10
 Iteration #          7
 delta_qm =   0.127143E-06 delta_en =   0.144183E-09 tol =   0.100000E-10
 Iteration #          8
 delta_qm =   0.973408E-07 delta_en =   0.110387E-09 tol =   0.100000E-10
 Iteration #          9
 delta_qm =   0.722375E-07 delta_en =   0.819189E-10 tol =   0.100000E-10
 Iteration #         10
 delta_qm =   0.605660E-07 delta_en =   0.686833E-10 tol =   0.100000E-10
 Iteration #         11
 delta_qm =   0.523225E-07 delta_en =   0.593349E-10 tol =   0.100000E-10
 Iteration #         12
 delta_qm =   0.418744E-07 delta_en =   0.474866E-10 tol =   0.100000E-10
 Iteration #         13
 delta_qm =   0.325595E-07 delta_en =   0.369232E-10 tol =   0.100000E-10
 Iteration #         14
 delta_qm =   0.258286E-07 delta_en =   0.292902E-10 tol =   0.100000E-10
 Iteration #         15
 delta_qm =   0.207271E-07 delta_en =   0.235050E-10 tol =   0.100000E-10
 Iteration #         16
 delta_qm =   0.169115E-07 delta_en =   0.191780E-10 tol =   0.100000E-10
 Iteration #         17
 delta_qm =   0.138812E-07 delta_en =   0.157416E-10 tol =   0.100000E-10
 Iteration #         18
 delta_qm =   0.110479E-07 delta_en =   0.125286E-10 tol =   0.100000E-10
 Iteration #         19
 delta_qm =   0.852468E-08 delta_en =   0.966719E-11 tol =   0.100000E-10
 Charges are converged, EXIT

%%%% DENSITY %%%%%%%%%%%%%%%%%%%%%%%%%%%%%%%%%%%%%%%%%%%%%%%%%%%%%%%%%%%%%%%%%%%
 density label              = velectrostatic                                                                  
 integral of density        =     -1355.907460    

%%%% CHARGES %%%%%%%%%%%%%%%%%%%%%%%%%%%%%%%%%%%%%%%%%%%%%%%%%%%%%%%%%%%%%%%%%%%
 total number of charges    =        100
 total charge               =      0.0000000

%%%% DENSITY %%%%%%%%%%%%%%%%%%%%%%%%%%%%%%%%%%%%%%%%%%%%%%%%%%%%%%%%%%%%%%%%%%%
 density label              = vsoftcavity                                                                     
 integral of density        =      6.363578212    

%%%% ELECTRONS %%%%%%%%%%%%%%%%%%%%%%%%%%%%%%%%%%%%%%%%%%%%%%%%%%%%%%%%%%%%%%%%%
 number of electrons        =         90
 total electronic charge    =     90.0000000

%%%% BOUNDARY %%%%%%%%%%%%%%%%%%%%%%%%%%%%%%%%%%%%%%%%%%%%%%%%%%%%%%%%%%%%%%%%%%
 boundary label             = solvent              
 boundary mode              = full                 
 boundary is built as a function of a smooth density
 function type              =  1 
 using the optimal SCCS function with parameters 
 rhomax                     =      0.0050000 
 rhomin                     =      0.0001000 
 volume of the QM region    =   1470.7479253 
 surface of the QM region   =    257.9261542 

%%%% DIELECTRIC %%%%%%%%%%%%%%%%%%%%%%%%%%%%%%%%%%%%%%%%%%%%%%%%%%%%%%%%%%%%%%%%%
 dielectric build on homogeneous background
 environment bulk permitt.  =    100.0000000 
 dielectric flags
 need gradient              =  F 
 need factor depend. sqrt   =  F 
 total dielectric charge    =     -0.0000005

%%%% DENSITY %%%%%%%%%%%%%%%%%%%%%%%%%%%%%%%%%%%%%%%%%%%%%%%%%%%%%%%%%%%%%%%%%%%
 density label              = vreference                                                                      
 integral of density        =     0.3015628380E-11

%%%% COMPUTE ELECTROSTATIC POTENTIAL %%%%%%%%%%%%%%%%%%%%%%%%%%%%%%%%%%%%%%%%%%%
 Starting from polarization: rhoiter =      0.268536 jellium =      0.000000
 Iteration #          1
 delta_qm =   0.116465E-05 delta_en =   0.132074E-08 tol =   0.100000E-10
 Iteration #          2
 delta_qm =   0.656843E-06 delta_en =   0.744875E-09 tol =   0.100000E-10
 Iteration #          3
 delta_qm =   0.372149E-06 delta_en =   0.422026E-09 tol =   0.100000E-10
 Iteration #          4
 delta_qm =   0.258494E-06 delta_en =   0.293138E-09 tol =   0.100000E-10
 Iteration #          5
 delta_qm =   0.176157E-06 delta_en =   0.199766E-09 tol =   0.100000E-10
 Iteration #          6
 delta_qm =   0.125255E-06 delta_en =   0.142042E-09 tol =   0.100000E-10
 Iteration #          7
 delta_qm =   0.989405E-07 delta_en =   0.112201E-09 tol =   0.100000E-10
 Iteration #          8
 delta_qm =   0.751236E-07 delta_en =   0.851919E-10 tol =   0.100000E-10
 Iteration #          9
 delta_qm =   0.538441E-07 delta_en =   0.610604E-10 tol =   0.100000E-10
 Iteration #         10
 delta_qm =   0.410111E-07 delta_en =   0.465076E-10 tol =   0.100000E-10
 Iteration #         11
 delta_qm =   0.321150E-07 delta_en =   0.364191E-10 tol =   0.100000E-10
 Iteration #         12
 delta_qm =   0.254325E-07 delta_en =   0.288411E-10 tol =   0.100000E-10
 Iteration #         13
 delta_qm =   0.219896E-07 delta_en =   0.249367E-10 tol =   0.100000E-10
 Iteration #         14
 delta_qm =   0.191198E-07 delta_en =   0.216822E-10 tol =   0.100000E-10
 Iteration #         15
 delta_qm =   0.154939E-07 delta_en =   0.175705E-10 tol =   0.100000E-10
 Iteration #         16
 delta_qm =   0.121929E-07 delta_en =   0.138270E-10 tol =   0.100000E-10
 Iteration #         17
 delta_qm =   0.967400E-08 delta_en =   0.109705E-10 tol =   0.100000E-10
 Iteration #         18
 delta_qm =   0.759984E-08 delta_en =   0.861839E-11 tol =   0.100000E-10
 Charges are converged, EXIT

%%%% DENSITY %%%%%%%%%%%%%%%%%%%%%%%%%%%%%%%%%%%%%%%%%%%%%%%%%%%%%%%%%%%%%%%%%%%
 density label              = velectrostatic                                                                  
 integral of density        =     -1355.617835    

%%%% CHARGES %%%%%%%%%%%%%%%%%%%%%%%%%%%%%%%%%%%%%%%%%%%%%%%%%%%%%%%%%%%%%%%%%%%
 total number of charges    =        100
 total charge               =      0.0000000

%%%% DENSITY %%%%%%%%%%%%%%%%%%%%%%%%%%%%%%%%%%%%%%%%%%%%%%%%%%%%%%%%%%%%%%%%%%%
 density label              = vsoftcavity                                                                     
 integral of density        =      6.497772099    

%%%% ELECTRONS %%%%%%%%%%%%%%%%%%%%%%%%%%%%%%%%%%%%%%%%%%%%%%%%%%%%%%%%%%%%%%%%%
 number of electrons        =         90
 total electronic charge    =     90.0000000

%%%% BOUNDARY %%%%%%%%%%%%%%%%%%%%%%%%%%%%%%%%%%%%%%%%%%%%%%%%%%%%%%%%%%%%%%%%%%
 boundary label             = solvent              
 boundary mode              = full                 
 boundary is built as a function of a smooth density
 function type              =  1 
 using the optimal SCCS function with parameters 
 rhomax                     =      0.0050000 
 rhomin                     =      0.0001000 
 volume of the QM region    =   1470.7340646 
 surface of the QM region   =    257.9298587 

%%%% DIELECTRIC %%%%%%%%%%%%%%%%%%%%%%%%%%%%%%%%%%%%%%%%%%%%%%%%%%%%%%%%%%%%%%%%%
 dielectric build on homogeneous background
 environment bulk permitt.  =    100.0000000 
 dielectric flags
 need gradient              =  F 
 need factor depend. sqrt   =  F 
 total dielectric charge    =     -0.0000006

%%%% DENSITY %%%%%%%%%%%%%%%%%%%%%%%%%%%%%%%%%%%%%%%%%%%%%%%%%%%%%%%%%%%%%%%%%%%
 density label              = vreference                                                                      
 integral of density        =    -0.2214156315E-11

%%%% COMPUTE ELECTROSTATIC POTENTIAL %%%%%%%%%%%%%%%%%%%%%%%%%%%%%%%%%%%%%%%%%%%
 Starting from polarization: rhoiter =      0.268604 jellium =      0.000000
 Iteration #          1
 delta_qm =   0.345792E-06 delta_en =   0.392136E-09 tol =   0.100000E-10
 Iteration #          2
 delta_qm =   0.207977E-06 delta_en =   0.235851E-09 tol =   0.100000E-10
 Iteration #          3
 delta_qm =   0.131032E-06 delta_en =   0.148594E-09 tol =   0.100000E-10
 Iteration #          4
 delta_qm =   0.936597E-07 delta_en =   0.106212E-09 tol =   0.100000E-10
 Iteration #          5
 delta_qm =   0.664845E-07 delta_en =   0.753949E-10 tol =   0.100000E-10
 Iteration #          6
 delta_qm =   0.450185E-07 delta_en =   0.510520E-10 tol =   0.100000E-10
 Iteration #          7
 delta_qm =   0.311982E-07 delta_en =   0.353795E-10 tol =   0.100000E-10
 Iteration #          8
 delta_qm =   0.233387E-07 delta_en =   0.264666E-10 tol =   0.100000E-10
 Iteration #          9
 delta_qm =   0.167432E-07 delta_en =   0.189871E-10 tol =   0.100000E-10
 Iteration #         10
 delta_qm =   0.115207E-07 delta_en =   0.130647E-10 tol =   0.100000E-10
 Iteration #         11
 delta_qm =   0.865371E-08 delta_en =   0.981350E-11 tol =   0.100000E-10
 Charges are converged, EXIT

%%%% DENSITY %%%%%%%%%%%%%%%%%%%%%%%%%%%%%%%%%%%%%%%%%%%%%%%%%%%%%%%%%%%%%%%%%%%
 density label              = velectrostatic                                                                  
 integral of density        =     -1355.557723    

%%%% CHARGES %%%%%%%%%%%%%%%%%%%%%%%%%%%%%%%%%%%%%%%%%%%%%%%%%%%%%%%%%%%%%%%%%%%
 total number of charges    =        100
 total charge               =      0.0000000

%%%% DENSITY %%%%%%%%%%%%%%%%%%%%%%%%%%%%%%%%%%%%%%%%%%%%%%%%%%%%%%%%%%%%%%%%%%%
 density label              = vsoftcavity                                                                     
 integral of density        =      6.452029676    

%%%% ELECTRONS %%%%%%%%%%%%%%%%%%%%%%%%%%%%%%%%%%%%%%%%%%%%%%%%%%%%%%%%%%%%%%%%%
 number of electrons        =         90
 total electronic charge    =     90.0000000

%%%% BOUNDARY %%%%%%%%%%%%%%%%%%%%%%%%%%%%%%%%%%%%%%%%%%%%%%%%%%%%%%%%%%%%%%%%%%
 boundary label             = solvent              
 boundary mode              = full                 
 boundary is built as a function of a smooth density
 function type              =  1 
 using the optimal SCCS function with parameters 
 rhomax                     =      0.0050000 
 rhomin                     =      0.0001000 
 volume of the QM region    =   1470.7340646 
 surface of the QM region   =    257.9298587 

%%%% DIELECTRIC %%%%%%%%%%%%%%%%%%%%%%%%%%%%%%%%%%%%%%%%%%%%%%%%%%%%%%%%%%%%%%%%%
 dielectric build on homogeneous background
 environment bulk permitt.  =    100.0000000 
 dielectric flags
 need gradient              =  F 
 need factor depend. sqrt   =  F 
 total dielectric charge    =     -0.0000005

%%%% DENSITY %%%%%%%%%%%%%%%%%%%%%%%%%%%%%%%%%%%%%%%%%%%%%%%%%%%%%%%%%%%%%%%%%%%
 density label              = vreference                                                                      
 integral of density        =    -0.2214156315E-11

%%%% DENSITY %%%%%%%%%%%%%%%%%%%%%%%%%%%%%%%%%%%%%%%%%%%%%%%%%%%%%%%%%%%%%%%%%%%
 density label              = velectrostatic                                                                  
 integral of density        =     -1355.557723    

%%%% CHARGES %%%%%%%%%%%%%%%%%%%%%%%%%%%%%%%%%%%%%%%%%%%%%%%%%%%%%%%%%%%%%%%%%%%
 total number of charges    =        100
 total charge               =      0.0000000

%%%% DENSITY %%%%%%%%%%%%%%%%%%%%%%%%%%%%%%%%%%%%%%%%%%%%%%%%%%%%%%%%%%%%%%%%%%%
 density label              = vsoftcavity                                                                     
 integral of density        =      6.452029676    
