
     Program PWSCF v.6.1 (svn rev. 13369) starts on  4Oct2017 at 13:48:12 

     This program is part of the open-source Quantum ESPRESSO suite
     for quantum simulation of materials; please cite
         "P. Giannozzi et al., J. Phys.:Condens. Matter 21 395502 (2009);
          URL http://www.quantum-espresso.org", 
     in publications or presentations arising from this work. More details at
     http://www.quantum-espresso.org/quote

     Serial version
     Reading input from charged.in

     Current dimensions of program PWSCF are:
     Max number of different atomic species (ntypx) = 10
     Max number of k-points (npk) =  40000
     Max angular momentum in pseudopotentials (lmaxx) =  3
     Message from routine  environ_checkin    :
      use some old legacy code for environ
               file C.pbe-rrkjus.UPF: wavefunction(s)  2S 2P renormalized
               file O.pbe-rrkjus.UPF: wavefunction(s)  2S renormalized

     gamma-point specific algorithms are used

     G-vector sticks info
     --------------------
     sticks:   dense  smooth     PW     G-vecs:    dense   smooth      PW
     Sum        2205    1099    269               330909   116965   14571



     bravais-lattice index     =            8
     lattice parameter (alat)  =      10.6881  a.u.
     unit-cell volume          =    4181.1215 (a.u.)^3
     number of atoms/cell      =           10
     number of atomic types    =            3
     number of electrons       =        89.00
     number of Kohn-Sham states=           80
     kinetic-energy cutoff     =      35.0000  Ry
     charge density cutoff     =     280.0000  Ry
     convergence threshold     =      5.0E-02
     mixing beta               =       0.7000
     number of iterations used =            8  plain     mixing
     Exchange-correlation      = PBE ( 1  4  3  4 0 0)


     Environ Module
     ==============

     Plese cite
         O. Andreussi, I. Dabo and N. Marzari, J. Chem. Phys. 136, 064102 (2012)         
     in publications or presentations arising from this work.

     compensation onset threshold      =               0.1000E+03 
     switching function adopted        =                     SCCS 
     density limit for vacuum region   =               0.5000E-02 
     density limit for bulk solvent    =               0.1000E-03 
     static permittivity               =                   100.00 
     epsilon calculation mode          =               electronic 

     Electrostatic Setup
     -------------------
     electrostatic problem to solve    = generalized              
     numerical solver adopted          = iterative                
     type of auxiliary density adopted = full                     
     type of core tool for poisson     = fft                      
     type of core tool for s(r) deriv  = fd                       
     type of numerical differentiator  =            central diff. 
     number of points in num. diff.    =                        2 



     celldm(1)=  10.688100  celldm(2)=   0.866025  celldm(3)=   3.954220
     celldm(4)=   0.000000  celldm(5)=   0.000000  celldm(6)=   0.000000

     crystal axes: (cart. coord. in units of alat)
               a(1) = (   1.000000   0.000000   0.000000 )  
               a(2) = (   0.000000   0.866025   0.000000 )  
               a(3) = (   0.000000   0.000000   3.954220 )  

     reciprocal axes: (cart. coord. in units 2 pi/alat)
               b(1) = (  1.000000  0.000000  0.000000 )  
               b(2) = (  0.000000  1.154701  0.000000 )  
               b(3) = (  0.000000  0.000000  0.252894 )  


     PseudoPot. # 1 for C  read from file:
     ../../../pseudo/C.pbe-rrkjus.UPF
     MD5 check sum: 00fb224312de0c5b6853bd333518df6f
     Pseudo is Ultrasoft, Zval =  4.0
     Generated by new atomic code, or converted to UPF format
     Using radial grid of  627 points,  4 beta functions with: 
                l(1) =   0
                l(2) =   0
                l(3) =   1
                l(4) =   1
     Q(r) pseudized with 0 coefficients 


     PseudoPot. # 2 for O  read from file:
     ../../../pseudo/O.pbe-rrkjus.UPF
     MD5 check sum: 390ba29e75625707450f3bd3f0eb6be9
     Pseudo is Ultrasoft, Zval =  6.0
     Generated by new atomic code, or converted to UPF format
     Using radial grid of 1269 points,  4 beta functions with: 
                l(1) =   0
                l(2) =   0
                l(3) =   1
                l(4) =   1
     Q(r) pseudized with 0 coefficients 


     PseudoPot. # 3 for Pt read from file:
     ../../../pseudo/Pt.pbe-n-rrkjus.UPF
     MD5 check sum: df5be8f5ed4f66d4aed38ca70ec8d507
     Pseudo is Ultrasoft + core correction, Zval = 10.0
     Generated using "atomic" code by A. Dal Corso  v.5.0.2 svn rev. 9415
     Using radial grid of 1277 points,  6 beta functions with: 
                l(1) =   0
                l(2) =   0
                l(3) =   1
                l(4) =   1
                l(5) =   2
                l(6) =   2
     Q(r) pseudized with 0 coefficients 


     atomic species   valence    mass     pseudopotential
        C              4.00     1.00000     C ( 1.00)
        O              6.00     1.00000     O ( 1.00)
        Pt            10.00     1.00000     Pt( 1.00)

     No symmetry found



   Cartesian axes

     site n.     atom                  positions (alat units)
         1           C   tau(   1) = (   0.4991611   0.4347567   1.2070461  )
         2           O   tau(   2) = (   0.4991542   0.4322212   1.4109013  )
         3           Pt  tau(   3) = (   0.7542339   0.0091745   0.8413229  )
         4           Pt  tau(   4) = (   0.2441023   0.0091745   0.8413226  )
         5           Pt  tau(   5) = (   0.0000034   0.4416918   0.8391348  )
         6           Pt  tau(   6) = (   0.4991682   0.4417635   0.8776299  )
         7           Pt  tau(   7) = (   0.0000038   0.7300598   0.4308181  )
         8           Pt  tau(   8) = (   0.4991683   0.7202168   0.4447460  )
         9           Pt  tau(   9) = (   0.2524172   0.2949237   0.4386572  )
        10           Pt  tau(  10) = (   0.7459196   0.2949237   0.4386575  )

     number of k points=     1  Marzari-Vanderbilt smearing, width (Ry)=  0.0300
                       cart. coord. in units 2pi/alat
        k(    1) = (   0.0000000   0.0000000   0.0000000), wk =   2.0000000

     Dense  grid:   165455 G-vectors     FFT dimensions: (  60,  50, 225)

     Smooth grid:    58483 G-vectors     FFT dimensions: (  45,  36, 160)

     Estimated max dynamical RAM per process >     216.67MB

     Initial potential from superposition of free atoms
     Check: negative starting charge=   -0.001782

     starting charge   89.99859, renormalised to   89.00000

     negative rho (up, down):  1.762E-03 0.000E+00
     Starting wfc are   80 randomized atomic wfcs

     total cpu time spent up to now is       31.8 secs

     Self-consistent Calculation

     iteration #  1     ecut=    35.00 Ry     beta=0.70
     Davidson diagonalization with overlap
     ethr =  1.00E-02,  avg # of iterations =  5.0

     negative rho (up, down):  1.526E-03 0.000E+00

     add environment contribution to local potential
 Warning: Polarization charge not converged
     polarization accuracy = 4.0E-10, # of iterations = 201

     total cpu time spent up to now is      186.6 secs

     total energy              =    -622.68843633 Ry
     Harris-Foulkes estimate   =    -624.21108732 Ry
     estimated scf accuracy    <       1.86594048 Ry
     electrostatic embedding   =       0.03381190 Ry
     correction to one-el term =       0.00000000 Ry

     iteration #  2     ecut=    35.00 Ry     beta=0.70
     Davidson diagonalization with overlap
     WARNING:     1 eigenvalues not converged in regterg
     c_bands:  1 eigenvalues not converged
     ethr =  2.10E-03,  avg # of iterations = 20.0

     negative rho (up, down):  2.129E-02 0.000E+00

     add environment contribution to local potential
 Warning: Polarization charge not converged
     polarization accuracy = 5.0E-10, # of iterations = 201

     total cpu time spent up to now is      320.6 secs

     total energy              =    -630.87089612 Ry
     Harris-Foulkes estimate   =    -619.54313497 Ry
     estimated scf accuracy    <      42.93159568 Ry
     electrostatic embedding   =       0.22196029 Ry
     correction to one-el term =     -19.62676573 Ry

     iteration #  3     ecut=    35.00 Ry     beta=0.70
     Davidson diagonalization with overlap
     WARNING:     2 eigenvalues not converged in regterg
     c_bands:  2 eigenvalues not converged
     ethr =  2.10E-03,  avg # of iterations = 20.0

     negative rho (up, down):  7.549E-03 0.000E+00

     add environment contribution to local potential
 Warning: Polarization charge not converged
     polarization accuracy = 4.0E-11, # of iterations = 201

     total cpu time spent up to now is      449.5 secs

     total energy              =    -630.68595633 Ry
     Harris-Foulkes estimate   =    -614.43147110 Ry
     estimated scf accuracy    <       1.45791229 Ry
     electrostatic embedding   =       0.21907692 Ry
     correction to one-el term =     -16.90643568 Ry

     iteration #  4     ecut=    35.00 Ry     beta=0.70
     Davidson diagonalization with overlap
     ethr =  1.64E-03,  avg # of iterations = 11.0

     negative rho (up, down):  8.835E-03 0.000E+00

     add environment contribution to local potential
 Warning: Polarization charge not converged
     polarization accuracy = 8.5E-11, # of iterations = 201

     total cpu time spent up to now is      570.9 secs

     total energy              =    -630.58546597 Ry
     Harris-Foulkes estimate   =    -613.81962499 Ry
     estimated scf accuracy    <       0.87478640 Ry
     electrostatic embedding   =       0.20494145 Ry
     correction to one-el term =     -17.21415898 Ry

     iteration #  5     ecut=    35.00 Ry     beta=0.70
     Davidson diagonalization with overlap
     WARNING:     4 eigenvalues not converged in regterg
     c_bands:  4 eigenvalues not converged
     ethr =  9.83E-04,  avg # of iterations = 20.0

     negative rho (up, down):  6.758E-03 0.000E+00

     add environment contribution to local potential
 Warning: Polarization charge not converged
     polarization accuracy = 7.1E-11, # of iterations = 201

     total cpu time spent up to now is      694.0 secs

     total energy              =    -629.69396610 Ry
     Harris-Foulkes estimate   =    -613.55938580 Ry
     estimated scf accuracy    <       0.21977987 Ry
     electrostatic embedding   =       0.19832799 Ry
     correction to one-el term =     -16.39880771 Ry

     iteration #  6     ecut=    35.00 Ry     beta=0.70
     Davidson diagonalization with overlap
     WARNING:     1 eigenvalues not converged in regterg
     c_bands:  1 eigenvalues not converged
     ethr =  2.47E-04,  avg # of iterations = 20.0

     negative rho (up, down):  4.461E-03 0.000E+00

     add environment contribution to local potential
 Warning: Polarization charge not converged
     polarization accuracy = 4.1E-10, # of iterations = 201

     total cpu time spent up to now is      822.0 secs

     total energy              =    -626.40538667 Ry
     Harris-Foulkes estimate   =    -612.85389739 Ry
     estimated scf accuracy    <       0.08309869 Ry
     electrostatic embedding   =       0.17690858 Ry
     correction to one-el term =     -13.75732148 Ry

     iteration #  7     ecut=    35.00 Ry     beta=0.70
     Davidson diagonalization with overlap
     WARNING:    12 eigenvalues not converged in regterg
     WARNING:     1 eigenvalues not converged in regterg
     c_bands:  1 eigenvalues not converged
     ethr =  9.34E-05,  avg # of iterations = 40.0

     negative rho (up, down):  5.612E-03 0.000E+00

     add environment contribution to local potential
 Warning: Polarization charge not converged
     polarization accuracy = 1.2E-10, # of iterations = 201

     total cpu time spent up to now is      946.0 secs

     total energy              =    -625.95086067 Ry
     Harris-Foulkes estimate   =    -611.69326915 Ry
     estimated scf accuracy    <       0.17763471 Ry
     electrostatic embedding   =       0.16390161 Ry
     correction to one-el term =     -14.45166796 Ry

     iteration #  8     ecut=    35.00 Ry     beta=0.70
     Davidson diagonalization with overlap
     ethr =  9.34E-05,  avg # of iterations = 13.0

     negative rho (up, down):  5.003E-03 0.000E+00

     add environment contribution to local potential
 Warning: Polarization charge not converged
     polarization accuracy = 1.4E-10, # of iterations = 201

     total cpu time spent up to now is     1064.1 secs

     total energy              =    -625.60671064 Ry
     Harris-Foulkes estimate   =    -610.83838378 Ry
     estimated scf accuracy    <       0.06908353 Ry
     electrostatic embedding   =       0.15514723 Ry
     correction to one-el term =     -14.93817760 Ry

     iteration #  9     ecut=    35.00 Ry     beta=0.70
     Davidson diagonalization with overlap
     ethr =  7.76E-05,  avg # of iterations =  8.0

     negative rho (up, down):  2.684E-03 0.000E+00

     total cpu time spent up to now is     1070.5 secs

     End of self-consistent calculation

          k = 0.0000 0.0000 0.0000 (  7286 PWs)   bands (ev):

   -24.9665 -11.3277  -9.6788  -8.5362  -8.2634  -7.7130  -7.6931  -7.4649
    -7.2957  -6.4129  -6.3048  -6.2123  -5.9389  -5.8970  -5.8121  -5.7732
    -5.0458  -4.9744  -4.9028  -4.7714  -4.7292  -4.6881  -4.6257  -4.6026
    -4.4857  -4.4834  -4.3234  -4.2787  -4.1838  -3.8895  -3.8102  -3.0858
    -2.9049  -2.5911  -2.4533  -2.3954  -2.1946  -2.1217  -2.0511  -1.8628
    -1.7179  -1.6617  -1.4642  -1.4329  -1.3727  -1.2137  -0.3811   0.1030
     0.2938   0.6016   1.0854   1.9532   2.2818   2.4452   2.7041   2.7693
     3.2139   3.5997   3.7249   4.7047   4.7898   5.5134   5.9407   6.0244
     6.4853   6.8865   7.2570   7.3424   7.3520   7.4888   7.5488   7.8383
     8.3197   8.5070   8.6418   8.6576   8.8493   8.9798   9.2545   9.3084

     the Fermi energy is    -1.2831 ev

!    total energy              =    -626.25585976 Ry
     Harris-Foulkes estimate   =    -609.94623119 Ry
     estimated scf accuracy    <       0.02637534 Ry

     The total energy is the sum of the following terms:

     one-electron contribution =   -3936.32140481 Ry
     hartree contribution      =    2016.75680270 Ry
     xc contribution           =    -263.57284941 Ry
     ewald contribution        =    1573.20467954 Ry
     smearing contrib. (-TS)   =       0.00806833 Ry
     electrostatic embedding   =       0.14557167 Ry
     correction to one-el term =     -16.47672777 Ry

     convergence has been achieved in   9 iterations

     negative rho (up, down):  2.684E-03 0.000E+00

     Forces acting on atoms (cartesian axes, Ry/au):

     atom    1 type  1   force =    -0.12830948   -0.09156108    0.07680321
     atom    2 type  2   force =    -0.13056953   -0.08169455   -0.12088780
     atom    3 type  3   force =     0.18070932    0.06739733   -0.02752767
     atom    4 type  3   force =    -0.15465771    0.06505751    0.00230843
     atom    5 type  3   force =     0.24722706   -0.04995708   -0.07675551
     atom    6 type  3   force =    -0.12018520   -0.05698941    0.09340575
     atom    7 type  3   force =     0.24750249    0.18310566    0.05090890
     atom    8 type  3   force =    -0.13031283    0.14734709    0.01030000
     atom    9 type  3   force =    -0.14672699   -0.08832035   -0.00359015
     atom   10 type  3   force =     0.13532288   -0.09438512   -0.00496515

     Total force =     0.651063     Total SCF correction =     0.465721
     SCF correction compared to forces is large: reduce conv_thr to get better values

     Writing output data file pwscf.save

     init_run     :     26.11s CPU     31.27s WALL (       1 calls)
     electrons    :    986.28s CPU   1038.97s WALL (       1 calls)
     forces       :      7.62s CPU      7.80s WALL (       1 calls)

     Called by init_run:
     wfcinit      :      1.00s CPU      1.29s WALL (       1 calls)
     potinit      :      5.10s CPU      6.71s WALL (       1 calls)

     Called by electrons:
     c_bands      :     41.86s CPU     32.64s WALL (       9 calls)
     sum_band     :     17.34s CPU     17.87s WALL (       9 calls)
     v_of_rho     :      6.29s CPU      7.10s WALL (      10 calls)
     newd         :     10.30s CPU     13.92s WALL (      10 calls)
     mix_rho      :      0.56s CPU      0.78s WALL (       9 calls)

     Called by c_bands:
     init_us_2    :      0.22s CPU      0.31s WALL (      19 calls)
     regterg      :     40.60s CPU     31.17s WALL (      10 calls)

     Called by sum_band:
     sum_band:bec :      0.00s CPU      0.00s WALL (       9 calls)
     addusdens    :     13.63s CPU     14.06s WALL (       9 calls)

     Called by *egterg:
     h_psi        :     23.74s CPU     22.64s WALL (     168 calls)
     s_psi        :      2.87s CPU      0.94s WALL (     168 calls)
     g_psi        :      0.26s CPU      0.27s WALL (     157 calls)
     rdiaghg      :      2.79s CPU      2.70s WALL (     167 calls)

     Called by h_psi:
     h_psi:pot    :     23.54s CPU     22.43s WALL (     168 calls)
     h_psi:calbec :      1.59s CPU      0.91s WALL (     168 calls)
     vloc_psi     :     18.85s CPU     20.51s WALL (     168 calls)
     add_vuspsi   :      3.09s CPU      1.01s WALL (     168 calls)

     General routines
     calbec       :      1.98s CPU      1.13s WALL (     181 calls)
     fft          :    139.83s CPU    143.80s WALL (    6668 calls)
     ffts         :      0.15s CPU      0.15s WALL (      19 calls)
     fftw         :     16.70s CPU     18.11s WALL (    3490 calls)
     interpolate  :      0.70s CPU      0.85s WALL (      19 calls)
     davcio       :      0.03s CPU      0.12s WALL (       1 calls)


     Environ routines
     calc_eelect  :      0.02s CPU      0.02s WALL (      18 calls)
     calc_velect  :    905.09s CPU    962.30s WALL (      16 calls)
     dielectric   :      0.55s CPU      0.62s WALL (      10 calls)
     calc_felect  :      0.62s CPU      0.63s WALL (       1 calls)

     PWSCF        : 17m 0.54s CPU    17m58.84s WALL


   This run was terminated on:  14: 6:10   4Oct2017            

=------------------------------------------------------------------------------=
   JOB DONE.
=------------------------------------------------------------------------------=

%%%% IONS %%%%%%%%%%%%%%%%%%%%%%%%%%%%%%%%%%%%%%%%%%%%%%%%%%%%%%%%%%%%%%%%%%%%%%
 number of ions             =         10
 ionic center of charge     =      0.3882415     0.3750182     0.7201831
 total ionic charge         =    -90.0000000
 ionic dipole               =      0.0000000     0.0000000     0.0000000
 ionic quadrupole (pc)      =   -730.5101255  -614.6110457  -876.7220256
 ionic quadrupole (gauss)   =   -741.7601255  -625.8610457  -887.9720256
 ion   1 type =  1 coordinates =      5.3350841     4.6467234    12.9010299
 ion   2 type =  2 coordinates =      5.3350096     4.6196233    15.0798543
 ion   3 type =  3 coordinates =      8.0613271     0.0980580     8.9921429
 ion   4 type =  3 coordinates =      2.6089894     0.0980583     8.9921406
 ion   5 type =  3 coordinates =      0.0000366     4.7208463     8.9687569
 ion   6 type =  3 coordinates =      5.3351596     4.7216127     9.3801964
 ion   7 type =  3 coordinates =      0.0000411     7.8029520     4.6046265
 ion   8 type =  3 coordinates =      5.3351612     7.6977491     4.7534894
 ion   9 type =  3 coordinates =      2.6978606     3.1521739     4.6884123
 ion  10 type =  3 coordinates =      7.9724637     3.1521745     4.6884152

%%%% SYSTEM %%%%%%%%%%%%%%%%%%%%%%%%%%%%%%%%%%%%%%%%%%%%%%%%%%%%%%%%%%%%%%%%%%%%
 system is built from all present ionic types
 system defined dimension   =  0 
 system defined axis        =  3 
 system center              =      0.3882415     0.3750182     0.7201831 
 system width               =      1.5145225 

%%%% ELECTRONS %%%%%%%%%%%%%%%%%%%%%%%%%%%%%%%%%%%%%%%%%%%%%%%%%%%%%%%%%%%%%%%%%
 number of electrons        =         89
 total electronic charge    =     89.0000000
 number of spin components  =  1

%%%% BOUNDARY %%%%%%%%%%%%%%%%%%%%%%%%%%%%%%%%%%%%%%%%%%%%%%%%%%%%%%%%%%%%%%%%%%
 boundary mode              = electronic           
 boundary is built as a function of a smooth density
 function type              =  1 
 using the optimal SCCS function with parameters 
 rhomax                     =      0.0050000 
 rhomin                     =      0.0001000 

%%%% DIELECTRIC %%%%%%%%%%%%%%%%%%%%%%%%%%%%%%%%%%%%%%%%%%%%%%%%%%%%%%%%%%%%%%%%%
 dielectric build on homogeneous background
 environment bulk permitt.  =    100.0000000 
 dielectric flags
 need gradient              =  F 
 need factor depend. sqrt   =  F 
 need gradient of logarithm =  T 

%%%% COMPUTE ELECTROSTATIC POTENTIAL %%%%%%%%%%%%%%%%%%%%%%%%%%%%%%%%%%%%%%%%%%%
 Starting from polarization: rhoiter =      0.000000 jellium =      0.000000
 Iteration #          1
 delta_qm =   0.399846E-02 delta_en =   0.486677E-05 tol =   0.100000E-10
 Iteration #          2
 delta_qm =   0.296574E-02 delta_en =   0.360978E-05 tol =   0.100000E-10
 Iteration #          3
 delta_qm =   0.218089E-02 delta_en =   0.265449E-05 tol =   0.100000E-10
 Iteration #          4
 delta_qm =   0.189457E-02 delta_en =   0.230600E-05 tol =   0.100000E-10
 Iteration #          5
 delta_qm =   0.147220E-02 delta_en =   0.179191E-05 tol =   0.100000E-10
 Iteration #          6
 delta_qm =   0.112035E-02 delta_en =   0.136365E-05 tol =   0.100000E-10
 Iteration #          7
 delta_qm =   0.120861E-02 delta_en =   0.147107E-05 tol =   0.100000E-10
 Iteration #          8
 delta_qm =   0.933274E-03 delta_en =   0.113594E-05 tol =   0.100000E-10
 Iteration #          9
 delta_qm =   0.673959E-03 delta_en =   0.820317E-06 tol =   0.100000E-10
 Iteration #         10
 delta_qm =   0.570279E-03 delta_en =   0.694121E-06 tol =   0.100000E-10
 Iteration #         11
 delta_qm =   0.527979E-03 delta_en =   0.642635E-06 tol =   0.100000E-10
 Iteration #         12
 delta_qm =   0.527556E-03 delta_en =   0.642120E-06 tol =   0.100000E-10
 Iteration #         13
 delta_qm =   0.475416E-03 delta_en =   0.578657E-06 tol =   0.100000E-10
 Iteration #         14
 delta_qm =   0.365546E-03 delta_en =   0.444929E-06 tol =   0.100000E-10
 Iteration #         15
 delta_qm =   0.312237E-03 delta_en =   0.380043E-06 tol =   0.100000E-10
 Iteration #         16
 delta_qm =   0.379347E-03 delta_en =   0.461726E-06 tol =   0.100000E-10
 Iteration #         17
 delta_qm =   0.431394E-03 delta_en =   0.525077E-06 tol =   0.100000E-10
 Iteration #         18
 delta_qm =   0.390243E-03 delta_en =   0.474989E-06 tol =   0.100000E-10
 Iteration #         19
 delta_qm =   0.296403E-03 delta_en =   0.360771E-06 tol =   0.100000E-10
 Iteration #         20
 delta_qm =   0.274670E-03 delta_en =   0.334318E-06 tol =   0.100000E-10
 Iteration #         21
 delta_qm =   0.336486E-03 delta_en =   0.409557E-06 tol =   0.100000E-10
 Iteration #         22
 delta_qm =   0.361476E-03 delta_en =   0.439975E-06 tol =   0.100000E-10
 Iteration #         23
 delta_qm =   0.310484E-03 delta_en =   0.377909E-06 tol =   0.100000E-10
 Iteration #         24
 delta_qm =   0.234972E-03 delta_en =   0.285999E-06 tol =   0.100000E-10
 Iteration #         25
 delta_qm =   0.235231E-03 delta_en =   0.286314E-06 tol =   0.100000E-10
 Iteration #         26
 delta_qm =   0.286444E-03 delta_en =   0.348649E-06 tol =   0.100000E-10
 Iteration #         27
 delta_qm =   0.295134E-03 delta_en =   0.359226E-06 tol =   0.100000E-10
 Iteration #         28
 delta_qm =   0.244036E-03 delta_en =   0.297032E-06 tol =   0.100000E-10
 Iteration #         29
 delta_qm =   0.187668E-03 delta_en =   0.228422E-06 tol =   0.100000E-10
 Iteration #         30
 delta_qm =   0.202013E-03 delta_en =   0.245883E-06 tol =   0.100000E-10
 Iteration #         31
 delta_qm =   0.242208E-03 delta_en =   0.294806E-06 tol =   0.100000E-10
 Iteration #         32
 delta_qm =   0.239461E-03 delta_en =   0.291462E-06 tol =   0.100000E-10
 Iteration #         33
 delta_qm =   0.191360E-03 delta_en =   0.232916E-06 tol =   0.100000E-10
 Iteration #         34
 delta_qm =   0.152429E-03 delta_en =   0.185530E-06 tol =   0.100000E-10
 Iteration #         35
 delta_qm =   0.174164E-03 delta_en =   0.211986E-06 tol =   0.100000E-10
 Iteration #         36
 delta_qm =   0.203507E-03 delta_en =   0.247701E-06 tol =   0.100000E-10
 Iteration #         37
 delta_qm =   0.192901E-03 delta_en =   0.234792E-06 tol =   0.100000E-10
 Iteration #         38
 delta_qm =   0.149829E-03 delta_en =   0.182366E-06 tol =   0.100000E-10
 Iteration #         39
 delta_qm =   0.125985E-03 delta_en =   0.153344E-06 tol =   0.100000E-10
 Iteration #         40
 delta_qm =   0.150061E-03 delta_en =   0.182648E-06 tol =   0.100000E-10
 Iteration #         41
 delta_qm =   0.169693E-03 delta_en =   0.206544E-06 tol =   0.100000E-10
 Iteration #         42
 delta_qm =   0.154233E-03 delta_en =   0.187726E-06 tol =   0.100000E-10
 Iteration #         43
 delta_qm =   0.117463E-03 delta_en =   0.142971E-06 tol =   0.100000E-10
 Iteration #         44
 delta_qm =   0.105826E-03 delta_en =   0.128807E-06 tol =   0.100000E-10
 Iteration #         45
 delta_qm =   0.128838E-03 delta_en =   0.156817E-06 tol =   0.100000E-10
 Iteration #         46
 delta_qm =   0.140380E-03 delta_en =   0.170865E-06 tol =   0.100000E-10
 Iteration #         47
 delta_qm =   0.122458E-03 delta_en =   0.149052E-06 tol =   0.100000E-10
 Iteration #         48
 delta_qm =   0.925867E-04 delta_en =   0.112693E-06 tol =   0.100000E-10
 Iteration #         49
 delta_qm =   0.900546E-04 delta_en =   0.109611E-06 tol =   0.100000E-10
 Iteration #         50
 delta_qm =   0.110038E-03 delta_en =   0.133934E-06 tol =   0.100000E-10
 Iteration #         51
 delta_qm =   0.115210E-03 delta_en =   0.140229E-06 tol =   0.100000E-10
 Iteration #         52
 delta_qm =   0.966383E-04 delta_en =   0.117624E-06 tol =   0.100000E-10
 Iteration #         53
 delta_qm =   0.737107E-04 delta_en =   0.897178E-07 tol =   0.100000E-10
 Iteration #         54
 delta_qm =   0.772967E-04 delta_en =   0.940825E-07 tol =   0.100000E-10
 Iteration #         55
 delta_qm =   0.933819E-04 delta_en =   0.113661E-06 tol =   0.100000E-10
 Iteration #         56
 delta_qm =   0.938045E-04 delta_en =   0.114175E-06 tol =   0.100000E-10
 Iteration #         57
 delta_qm =   0.758985E-04 delta_en =   0.923807E-07 tol =   0.100000E-10
 Iteration #         58
 delta_qm =   0.595194E-04 delta_en =   0.724447E-07 tol =   0.100000E-10
 Iteration #         59
 delta_qm =   0.666207E-04 delta_en =   0.810881E-07 tol =   0.100000E-10
 Iteration #         60
 delta_qm =   0.786841E-04 delta_en =   0.957712E-07 tol =   0.100000E-10
 Iteration #         61
 delta_qm =   0.757802E-04 delta_en =   0.922367E-07 tol =   0.100000E-10
 Iteration #         62
 delta_qm =   0.594433E-04 delta_en =   0.723521E-07 tol =   0.100000E-10
 Iteration #         63
 delta_qm =   0.488721E-04 delta_en =   0.594853E-07 tol =   0.100000E-10
 Iteration #         64
 delta_qm =   0.574367E-04 delta_en =   0.699098E-07 tol =   0.100000E-10
 Iteration #         65
 delta_qm =   0.657995E-04 delta_en =   0.800887E-07 tol =   0.100000E-10
 Iteration #         66
 delta_qm =   0.607560E-04 delta_en =   0.739498E-07 tol =   0.100000E-10
 Iteration #         67
 delta_qm =   0.465576E-04 delta_en =   0.566681E-07 tol =   0.100000E-10
 Iteration #         68
 delta_qm =   0.408118E-04 delta_en =   0.496745E-07 tol =   0.100000E-10
 Iteration #         69
 delta_qm =   0.493901E-04 delta_en =   0.601158E-07 tol =   0.100000E-10
 Iteration #         70
 delta_qm =   0.545962E-04 delta_en =   0.664524E-07 tol =   0.100000E-10
 Iteration #         71
 delta_qm =   0.483623E-04 delta_en =   0.588647E-07 tol =   0.100000E-10
 Iteration #         72
 delta_qm =   0.366037E-04 delta_en =   0.445526E-07 tol =   0.100000E-10
 Iteration #         73
 delta_qm =   0.345762E-04 delta_en =   0.420848E-07 tol =   0.100000E-10
 Iteration #         74
 delta_qm =   0.422736E-04 delta_en =   0.514538E-07 tol =   0.100000E-10
 Iteration #         75
 delta_qm =   0.449422E-04 delta_en =   0.547019E-07 tol =   0.100000E-10
 Iteration #         76
 delta_qm =   0.382486E-04 delta_en =   0.465547E-07 tol =   0.100000E-10
 Iteration #         77
 delta_qm =   0.290161E-04 delta_en =   0.353173E-07 tol =   0.100000E-10
 Iteration #         78
 delta_qm =   0.295977E-04 delta_en =   0.360252E-07 tol =   0.100000E-10
 Iteration #         79
 delta_qm =   0.359654E-04 delta_en =   0.437756E-07 tol =   0.100000E-10
 Iteration #         80
 delta_qm =   0.367019E-04 delta_en =   0.446721E-07 tol =   0.100000E-10
 Iteration #         81
 delta_qm =   0.300884E-04 delta_en =   0.366225E-07 tol =   0.100000E-10
 Iteration #         82
 delta_qm =   0.232952E-04 delta_en =   0.283540E-07 tol =   0.100000E-10
 Iteration #         83
 delta_qm =   0.254826E-04 delta_en =   0.310164E-07 tol =   0.100000E-10
 Iteration #         84
 delta_qm =   0.303882E-04 delta_en =   0.369874E-07 tol =   0.100000E-10
 Iteration #         85
 delta_qm =   0.297369E-04 delta_en =   0.361946E-07 tol =   0.100000E-10
 Iteration #         86
 delta_qm =   0.235833E-04 delta_en =   0.287046E-07 tol =   0.100000E-10
 Iteration #         87
 delta_qm =   0.190044E-04 delta_en =   0.231314E-07 tol =   0.100000E-10
 Iteration #         88
 delta_qm =   0.219758E-04 delta_en =   0.267481E-07 tol =   0.100000E-10
 Iteration #         89
 delta_qm =   0.254859E-04 delta_en =   0.310204E-07 tol =   0.100000E-10
 Iteration #         90
 delta_qm =   0.239088E-04 delta_en =   0.291009E-07 tol =   0.100000E-10
 Iteration #         91
 delta_qm =   0.184635E-04 delta_en =   0.224731E-07 tol =   0.100000E-10
 Iteration #         92
 delta_qm =   0.157719E-04 delta_en =   0.191969E-07 tol =   0.100000E-10
 Iteration #         93
 delta_qm =   0.189211E-04 delta_en =   0.230300E-07 tol =   0.100000E-10
 Iteration #         94
 delta_qm =   0.212095E-04 delta_en =   0.258153E-07 tol =   0.100000E-10
 Iteration #         95
 delta_qm =   0.190820E-04 delta_en =   0.232259E-07 tol =   0.100000E-10
 Iteration #         96
 delta_qm =   0.144881E-04 delta_en =   0.176344E-07 tol =   0.100000E-10
 Iteration #         97
 delta_qm =   0.132951E-04 delta_en =   0.161822E-07 tol =   0.100000E-10
 Iteration #         98
 delta_qm =   0.162264E-04 delta_en =   0.197501E-07 tol =   0.100000E-10
 Iteration #         99
 delta_qm =   0.175116E-04 delta_en =   0.213145E-07 tol =   0.100000E-10
 Iteration #        100
 delta_qm =   0.151268E-04 delta_en =   0.184117E-07 tol =   0.100000E-10
 Iteration #        101
 delta_qm =   0.114430E-04 delta_en =   0.139279E-07 tol =   0.100000E-10
 Iteration #        102
 delta_qm =   0.113425E-04 delta_en =   0.138057E-07 tol =   0.100000E-10
 Iteration #        103
 delta_qm =   0.138381E-04 delta_en =   0.168433E-07 tol =   0.100000E-10
 Iteration #        104
 delta_qm =   0.143438E-04 delta_en =   0.174587E-07 tol =   0.100000E-10
 Iteration #        105
 delta_qm =   0.119217E-04 delta_en =   0.145106E-07 tol =   0.100000E-10
 Iteration #        106
 delta_qm =   0.913853E-05 delta_en =   0.111231E-07 tol =   0.100000E-10
 Iteration #        107
 delta_qm =   0.974937E-05 delta_en =   0.118666E-07 tol =   0.100000E-10
 Iteration #        108
 delta_qm =   0.117237E-04 delta_en =   0.142696E-07 tol =   0.100000E-10
 Iteration #        109
 delta_qm =   0.116562E-04 delta_en =   0.141875E-07 tol =   0.100000E-10
 Iteration #        110
 delta_qm =   0.935470E-05 delta_en =   0.113862E-07 tol =   0.100000E-10
 Iteration #        111
 delta_qm =   0.740831E-05 delta_en =   0.901711E-08 tol =   0.100000E-10
 Iteration #        112
 delta_qm =   0.840613E-05 delta_en =   0.102316E-07 tol =   0.100000E-10
 Iteration #        113
 delta_qm =   0.986042E-05 delta_en =   0.120017E-07 tol =   0.100000E-10
 Iteration #        114
 delta_qm =   0.939876E-05 delta_en =   0.114398E-07 tol =   0.100000E-10
 Iteration #        115
 delta_qm =   0.732444E-05 delta_en =   0.891503E-08 tol =   0.100000E-10
 Iteration #        116
 delta_qm =   0.610882E-05 delta_en =   0.743542E-08 tol =   0.100000E-10
 Iteration #        117
 delta_qm =   0.724439E-05 delta_en =   0.881759E-08 tol =   0.100000E-10
 Iteration #        118
 delta_qm =   0.823014E-05 delta_en =   0.100174E-07 tol =   0.100000E-10
 Iteration #        119
 delta_qm =   0.752177E-05 delta_en =   0.915520E-08 tol =   0.100000E-10
 Iteration #        120
 delta_qm =   0.573985E-05 delta_en =   0.698632E-08 tol =   0.100000E-10
 Iteration #        121
 delta_qm =   0.512095E-05 delta_en =   0.623303E-08 tol =   0.100000E-10
 Iteration #        122
 delta_qm =   0.622338E-05 delta_en =   0.757486E-08 tol =   0.100000E-10
 Iteration #        123
 delta_qm =   0.681561E-05 delta_en =   0.829570E-08 tol =   0.100000E-10
 Iteration #        124
 delta_qm =   0.597744E-05 delta_en =   0.727551E-08 tol =   0.100000E-10
 Iteration #        125
 delta_qm =   0.451988E-05 delta_en =   0.550142E-08 tol =   0.100000E-10
 Iteration #        126
 delta_qm =   0.435134E-05 delta_en =   0.529628E-08 tol =   0.100000E-10
 Iteration #        127
 delta_qm =   0.531937E-05 delta_en =   0.647454E-08 tol =   0.100000E-10
 Iteration #        128
 delta_qm =   0.559949E-05 delta_en =   0.681548E-08 tol =   0.100000E-10
 Iteration #        129
 delta_qm =   0.472064E-05 delta_en =   0.574578E-08 tol =   0.100000E-10
 Iteration #        130
 delta_qm =   0.359271E-05 delta_en =   0.437291E-08 tol =   0.100000E-10
 Iteration #        131
 delta_qm =   0.373163E-05 delta_en =   0.454200E-08 tol =   0.100000E-10
 Iteration #        132
 delta_qm =   0.451825E-05 delta_en =   0.549944E-08 tol =   0.100000E-10
 Iteration #        133
 delta_qm =   0.456393E-05 delta_en =   0.555503E-08 tol =   0.100000E-10
 Iteration #        134
 delta_qm =   0.370952E-05 delta_en =   0.451508E-08 tol =   0.100000E-10
 Iteration #        135
 delta_qm =   0.289501E-05 delta_en =   0.352370E-08 tol =   0.100000E-10
 Iteration #        136
 delta_qm =   0.321523E-05 delta_en =   0.391346E-08 tol =   0.100000E-10
 Iteration #        137
 delta_qm =   0.381081E-05 delta_en =   0.463838E-08 tol =   0.100000E-10
 Iteration #        138
 delta_qm =   0.369077E-05 delta_en =   0.449226E-08 tol =   0.100000E-10
 Iteration #        139
 delta_qm =   0.290593E-05 delta_en =   0.353699E-08 tol =   0.100000E-10
 Iteration #        140
 delta_qm =   0.237171E-05 delta_en =   0.288675E-08 tol =   0.100000E-10
 Iteration #        141
 delta_qm =   0.277241E-05 delta_en =   0.337447E-08 tol =   0.100000E-10
 Iteration #        142
 delta_qm =   0.319005E-05 delta_en =   0.388280E-08 tol =   0.100000E-10
 Iteration #        143
 delta_qm =   0.296196E-05 delta_en =   0.360518E-08 tol =   0.100000E-10
 Iteration #        144
 delta_qm =   0.227554E-05 delta_en =   0.276970E-08 tol =   0.100000E-10
 Iteration #        145
 delta_qm =   0.197631E-05 delta_en =   0.240549E-08 tol =   0.100000E-10
 Iteration #        146
 delta_qm =   0.238515E-05 delta_en =   0.290311E-08 tol =   0.100000E-10
 Iteration #        147
 delta_qm =   0.264967E-05 delta_en =   0.322507E-08 tol =   0.100000E-10
 Iteration #        148
 delta_qm =   0.235991E-05 delta_en =   0.287239E-08 tol =   0.100000E-10
 Iteration #        149
 delta_qm =   0.178770E-05 delta_en =   0.217592E-08 tol =   0.100000E-10
 Iteration #        150
 delta_qm =   0.167151E-05 delta_en =   0.203449E-08 tol =   0.100000E-10
 Iteration #        151
 delta_qm =   0.204293E-05 delta_en =   0.248657E-08 tol =   0.100000E-10
 Iteration #        152
 delta_qm =   0.218344E-05 delta_en =   0.265760E-08 tol =   0.100000E-10
 Iteration #        153
 delta_qm =   0.186790E-05 delta_en =   0.227353E-08 tol =   0.100000E-10
 Iteration #        154
 delta_qm =   0.141521E-05 delta_en =   0.172253E-08 tol =   0.100000E-10
 Iteration #        155
 delta_qm =   0.142925E-05 delta_en =   0.173963E-08 tol =   0.100000E-10
 Iteration #        156
 delta_qm =   0.173956E-05 delta_en =   0.211733E-08 tol =   0.100000E-10
 Iteration #        157
 delta_qm =   0.178497E-05 delta_en =   0.217260E-08 tol =   0.100000E-10
 Iteration #        158
 delta_qm =   0.147031E-05 delta_en =   0.178960E-08 tol =   0.100000E-10
 Iteration #        159
 delta_qm =   0.113401E-05 delta_en =   0.138027E-08 tol =   0.100000E-10
 Iteration #        160
 delta_qm =   0.122991E-05 delta_en =   0.149699E-08 tol =   0.100000E-10
 Iteration #        161
 delta_qm =   0.147121E-05 delta_en =   0.179070E-08 tol =   0.100000E-10
 Iteration #        162
 delta_qm =   0.144774E-05 delta_en =   0.176213E-08 tol =   0.100000E-10
 Iteration #        163
 delta_qm =   0.115284E-05 delta_en =   0.140319E-08 tol =   0.100000E-10
 Iteration #        164
 delta_qm =   0.923060E-06 delta_en =   0.112351E-08 tol =   0.100000E-10
 Iteration #        165
 delta_qm =   0.106064E-05 delta_en =   0.129097E-08 tol =   0.100000E-10
 Iteration #        166
 delta_qm =   0.123511E-05 delta_en =   0.150332E-08 tol =   0.100000E-10
 Iteration #        167
 delta_qm =   0.116517E-05 delta_en =   0.141820E-08 tol =   0.100000E-10
 Iteration #        168
 delta_qm =   0.902542E-06 delta_en =   0.109854E-08 tol =   0.100000E-10
 Iteration #        169
 delta_qm =   0.764342E-06 delta_en =   0.930327E-09 tol =   0.100000E-10
 Iteration #        170
 delta_qm =   0.913542E-06 delta_en =   0.111193E-08 tol =   0.100000E-10
 Iteration #        171
 delta_qm =   0.102893E-05 delta_en =   0.125237E-08 tol =   0.100000E-10
 Iteration #        172
 delta_qm =   0.930822E-06 delta_en =   0.113296E-08 tol =   0.100000E-10
 Iteration #        173
 delta_qm =   0.707840E-06 delta_en =   0.861556E-09 tol =   0.100000E-10
 Iteration #        174
 delta_qm =   0.643090E-06 delta_en =   0.782744E-09 tol =   0.100000E-10
 Iteration #        175
 delta_qm =   0.783934E-06 delta_en =   0.954174E-09 tol =   0.100000E-10
 Iteration #        176
 delta_qm =   0.850432E-06 delta_en =   0.103511E-08 tol =   0.100000E-10
 Iteration #        177
 delta_qm =   0.738516E-06 delta_en =   0.898893E-09 tol =   0.100000E-10
 Iteration #        178
 delta_qm =   0.558435E-06 delta_en =   0.679706E-09 tol =   0.100000E-10
 Iteration #        179
 delta_qm =   0.547910E-06 delta_en =   0.666895E-09 tol =   0.100000E-10
 Iteration #        180
 delta_qm =   0.669094E-06 delta_en =   0.814395E-09 tol =   0.100000E-10
 Iteration #        181
 delta_qm =   0.697326E-06 delta_en =   0.848758E-09 tol =   0.100000E-10
 Iteration #        182
 delta_qm =   0.582445E-06 delta_en =   0.708929E-09 tol =   0.100000E-10
 Iteration #        183
 delta_qm =   0.445209E-06 delta_en =   0.541891E-09 tol =   0.100000E-10
 Iteration #        184
 delta_qm =   0.470609E-06 delta_en =   0.572807E-09 tol =   0.100000E-10
 Iteration #        185
 delta_qm =   0.567377E-06 delta_en =   0.690589E-09 tol =   0.100000E-10
 Iteration #        186
 delta_qm =   0.567263E-06 delta_en =   0.690450E-09 tol =   0.100000E-10
 Iteration #        187
 delta_qm =   0.457249E-06 delta_en =   0.556545E-09 tol =   0.100000E-10
 Iteration #        188
 delta_qm =   0.360140E-06 delta_en =   0.438349E-09 tol =   0.100000E-10
 Iteration #        189
 delta_qm =   0.405695E-06 delta_en =   0.493796E-09 tol =   0.100000E-10
 Iteration #        190
 delta_qm =   0.477676E-06 delta_en =   0.581409E-09 tol =   0.100000E-10
 Iteration #        191
 delta_qm =   0.457867E-06 delta_en =   0.557298E-09 tol =   0.100000E-10
 Iteration #        192
 delta_qm =   0.358059E-06 delta_en =   0.435816E-09 tol =   0.100000E-10
 Iteration #        193
 delta_qm =   0.296290E-06 delta_en =   0.360633E-09 tol =   0.100000E-10
 Iteration #        194
 delta_qm =   0.349710E-06 delta_en =   0.425654E-09 tol =   0.100000E-10
 Iteration #        195
 delta_qm =   0.399109E-06 delta_en =   0.485780E-09 tol =   0.100000E-10
 Iteration #        196
 delta_qm =   0.366784E-06 delta_en =   0.446436E-09 tol =   0.100000E-10
 Iteration #        197
 delta_qm =   0.280504E-06 delta_en =   0.341419E-09 tol =   0.100000E-10
 Iteration #        198
 delta_qm =   0.247866E-06 delta_en =   0.301693E-09 tol =   0.100000E-10
 Iteration #        199
 delta_qm =   0.300587E-06 delta_en =   0.365863E-09 tol =   0.100000E-10
 Iteration #        200
 delta_qm =   0.330861E-06 delta_en =   0.402711E-09 tol =   0.100000E-10

%%%% ELECTRONS %%%%%%%%%%%%%%%%%%%%%%%%%%%%%%%%%%%%%%%%%%%%%%%%%%%%%%%%%%%%%%%%%
 number of electrons        =         89
 total electronic charge    =     89.0000000
 number of spin components  =  1

%%%% BOUNDARY %%%%%%%%%%%%%%%%%%%%%%%%%%%%%%%%%%%%%%%%%%%%%%%%%%%%%%%%%%%%%%%%%%
 boundary mode              = electronic           
 boundary is built as a function of a smooth density
 function type              =  1 
 using the optimal SCCS function with parameters 
 rhomax                     =      0.0050000 
 rhomin                     =      0.0001000 

%%%% DIELECTRIC %%%%%%%%%%%%%%%%%%%%%%%%%%%%%%%%%%%%%%%%%%%%%%%%%%%%%%%%%%%%%%%%%
 dielectric build on homogeneous background
 environment bulk permitt.  =    100.0000000 
 dielectric flags
 need gradient              =  F 
 need factor depend. sqrt   =  F 
 need gradient of logarithm =  T 

%%%% COMPUTE ELECTROSTATIC POTENTIAL %%%%%%%%%%%%%%%%%%%%%%%%%%%%%%%%%%%%%%%%%%%
 Starting from polarization: rhoiter =      1.227428 jellium =      0.000000
 Iteration #          1
 delta_qm =   0.713557E-03 delta_en =   0.868513E-06 tol =   0.100000E-10
 Iteration #          2
 delta_qm =   0.749770E-03 delta_en =   0.912591E-06 tol =   0.100000E-10
 Iteration #          3
 delta_qm =   0.772610E-03 delta_en =   0.940391E-06 tol =   0.100000E-10
 Iteration #          4
 delta_qm =   0.653298E-03 delta_en =   0.795169E-06 tol =   0.100000E-10
 Iteration #          5
 delta_qm =   0.508991E-03 delta_en =   0.619524E-06 tol =   0.100000E-10
 Iteration #          6
 delta_qm =   0.533517E-03 delta_en =   0.649376E-06 tol =   0.100000E-10
 Iteration #          7
 delta_qm =   0.636059E-03 delta_en =   0.774186E-06 tol =   0.100000E-10
 Iteration #          8
 delta_qm =   0.635844E-03 delta_en =   0.773924E-06 tol =   0.100000E-10
 Iteration #          9
 delta_qm =   0.518286E-03 delta_en =   0.630837E-06 tol =   0.100000E-10
 Iteration #         10
 delta_qm =   0.415871E-03 delta_en =   0.506182E-06 tol =   0.100000E-10
 Iteration #         11
 delta_qm =   0.461041E-03 delta_en =   0.561161E-06 tol =   0.100000E-10
 Iteration #         12
 delta_qm =   0.534259E-03 delta_en =   0.650279E-06 tol =   0.100000E-10
 Iteration #         13
 delta_qm =   0.511871E-03 delta_en =   0.623030E-06 tol =   0.100000E-10
 Iteration #         14
 delta_qm =   0.406369E-03 delta_en =   0.494616E-06 tol =   0.100000E-10
 Iteration #         15
 delta_qm =   0.340819E-03 delta_en =   0.414832E-06 tol =   0.100000E-10
 Iteration #         16
 delta_qm =   0.394431E-03 delta_en =   0.480086E-06 tol =   0.100000E-10
 Iteration #         17
 delta_qm =   0.446411E-03 delta_en =   0.543354E-06 tol =   0.100000E-10
 Iteration #         18
 delta_qm =   0.413055E-03 delta_en =   0.502754E-06 tol =   0.100000E-10
 Iteration #         19
 delta_qm =   0.322161E-03 delta_en =   0.392122E-06 tol =   0.100000E-10
 Iteration #         20
 delta_qm =   0.285529E-03 delta_en =   0.347535E-06 tol =   0.100000E-10
 Iteration #         21
 delta_qm =   0.339254E-03 delta_en =   0.412927E-06 tol =   0.100000E-10
 Iteration #         22
 delta_qm =   0.372554E-03 delta_en =   0.453458E-06 tol =   0.100000E-10
 Iteration #         23
 delta_qm =   0.332457E-03 delta_en =   0.404653E-06 tol =   0.100000E-10
 Iteration #         24
 delta_qm =   0.256811E-03 delta_en =   0.312580E-06 tol =   0.100000E-10
 Iteration #         25
 delta_qm =   0.242386E-03 delta_en =   0.295023E-06 tol =   0.100000E-10
 Iteration #         26
 delta_qm =   0.290947E-03 delta_en =   0.354129E-06 tol =   0.100000E-10
 Iteration #         27
 delta_qm =   0.308832E-03 delta_en =   0.375898E-06 tol =   0.100000E-10
 Iteration #         28
 delta_qm =   0.266074E-03 delta_en =   0.323855E-06 tol =   0.100000E-10
 Iteration #         29
 delta_qm =   0.205958E-03 delta_en =   0.250684E-06 tol =   0.100000E-10
 Iteration #         30
 delta_qm =   0.207416E-03 delta_en =   0.252459E-06 tol =   0.100000E-10
 Iteration #         31
 delta_qm =   0.248258E-03 delta_en =   0.302170E-06 tol =   0.100000E-10
 Iteration #         32
 delta_qm =   0.254276E-03 delta_en =   0.309495E-06 tol =   0.100000E-10
 Iteration #         33
 delta_qm =   0.212006E-03 delta_en =   0.258046E-06 tol =   0.100000E-10
 Iteration #         34
 delta_qm =   0.166773E-03 delta_en =   0.202989E-06 tol =   0.100000E-10
 Iteration #         35
 delta_qm =   0.178418E-03 delta_en =   0.217164E-06 tol =   0.100000E-10
 Iteration #         36
 delta_qm =   0.210674E-03 delta_en =   0.256424E-06 tol =   0.100000E-10
 Iteration #         37
 delta_qm =   0.208000E-03 delta_en =   0.253170E-06 tol =   0.100000E-10
 Iteration #         38
 delta_qm =   0.168422E-03 delta_en =   0.204997E-06 tol =   0.100000E-10
 Iteration #         39
 delta_qm =   0.136703E-03 delta_en =   0.166390E-06 tol =   0.100000E-10
 Iteration #         40
 delta_qm =   0.153815E-03 delta_en =   0.187218E-06 tol =   0.100000E-10
 Iteration #         41
 delta_qm =   0.177718E-03 delta_en =   0.216311E-06 tol =   0.100000E-10
 Iteration #         42
 delta_qm =   0.169067E-03 delta_en =   0.205782E-06 tol =   0.100000E-10
 Iteration #         43
 delta_qm =   0.133640E-03 delta_en =   0.162662E-06 tol =   0.100000E-10
 Iteration #         44
 delta_qm =   0.113561E-03 delta_en =   0.138222E-06 tol =   0.100000E-10
 Iteration #         45
 delta_qm =   0.132552E-03 delta_en =   0.161337E-06 tol =   0.100000E-10
 Iteration #         46
 delta_qm =   0.148977E-03 delta_en =   0.181328E-06 tol =   0.100000E-10
 Iteration #         47
 delta_qm =   0.136585E-03 delta_en =   0.166246E-06 tol =   0.100000E-10
 Iteration #         48
 delta_qm =   0.106169E-03 delta_en =   0.129225E-06 tol =   0.100000E-10
 Iteration #         49
 delta_qm =   0.955501E-04 delta_en =   0.116300E-06 tol =   0.100000E-10
 Iteration #         50
 delta_qm =   0.113952E-03 delta_en =   0.138698E-06 tol =   0.100000E-10
 Iteration #         51
 delta_qm =   0.124077E-03 delta_en =   0.151022E-06 tol =   0.100000E-10
 Iteration #         52
 delta_qm =   0.109719E-03 delta_en =   0.133546E-06 tol =   0.100000E-10
 Iteration #         53
 delta_qm =   0.846954E-04 delta_en =   0.103088E-06 tol =   0.100000E-10
 Iteration #         54
 delta_qm =   0.812633E-04 delta_en =   0.989105E-07 tol =   0.100000E-10
 Iteration #         55
 delta_qm =   0.975822E-04 delta_en =   0.118773E-06 tol =   0.100000E-10
 Iteration #         56
 delta_qm =   0.102664E-03 delta_en =   0.124958E-06 tol =   0.100000E-10
 Iteration #         57
 delta_qm =   0.876980E-04 delta_en =   0.106743E-06 tol =   0.100000E-10
 Iteration #         58
 delta_qm =   0.680661E-04 delta_en =   0.828475E-07 tol =   0.100000E-10
 Iteration #         59
 delta_qm =   0.696489E-04 delta_en =   0.847739E-07 tol =   0.100000E-10
 Iteration #         60
 delta_qm =   0.831539E-04 delta_en =   0.101212E-06 tol =   0.100000E-10
 Iteration #         61
 delta_qm =   0.843896E-04 delta_en =   0.102716E-06 tol =   0.100000E-10
 Iteration #         62
 delta_qm =   0.698157E-04 delta_en =   0.849770E-07 tol =   0.100000E-10
 Iteration #         63
 delta_qm =   0.552764E-04 delta_en =   0.672803E-07 tol =   0.100000E-10
 Iteration #         64
 delta_qm =   0.599623E-04 delta_en =   0.729838E-07 tol =   0.100000E-10
 Iteration #         65
 delta_qm =   0.704623E-04 delta_en =   0.857640E-07 tol =   0.100000E-10
 Iteration #         66
 delta_qm =   0.689195E-04 delta_en =   0.838862E-07 tol =   0.100000E-10
 Iteration #         67
 delta_qm =   0.554358E-04 delta_en =   0.674743E-07 tol =   0.100000E-10
 Iteration #         68
 delta_qm =   0.454609E-04 delta_en =   0.553333E-07 tol =   0.100000E-10
 Iteration #         69
 delta_qm =   0.517000E-04 delta_en =   0.629272E-07 tol =   0.100000E-10
 Iteration #         70
 delta_qm =   0.593466E-04 delta_en =   0.722344E-07 tol =   0.100000E-10
 Iteration #         71
 delta_qm =   0.559311E-04 delta_en =   0.680771E-07 tol =   0.100000E-10
 Iteration #         72
 delta_qm =   0.439897E-04 delta_en =   0.535426E-07 tol =   0.100000E-10
 Iteration #         73
 delta_qm =   0.378914E-04 delta_en =   0.461200E-07 tol =   0.100000E-10
 Iteration #         74
 delta_qm =   0.445332E-04 delta_en =   0.542041E-07 tol =   0.100000E-10
 Iteration #         75
 delta_qm =   0.496682E-04 delta_en =   0.604542E-07 tol =   0.100000E-10
 Iteration #         76
 delta_qm =   0.451183E-04 delta_en =   0.549163E-07 tol =   0.100000E-10
 Iteration #         77
 delta_qm =   0.349735E-04 delta_en =   0.425683E-07 tol =   0.100000E-10
 Iteration #         78
 delta_qm =   0.319762E-04 delta_en =   0.389202E-07 tol =   0.100000E-10
 Iteration #         79
 delta_qm =   0.382513E-04 delta_en =   0.465580E-07 tol =   0.100000E-10
 Iteration #         80
 delta_qm =   0.412986E-04 delta_en =   0.502670E-07 tol =   0.100000E-10
 Iteration #         81
 delta_qm =   0.361953E-04 delta_en =   0.440555E-07 tol =   0.100000E-10
 Iteration #         82
 delta_qm =   0.279432E-04 delta_en =   0.340114E-07 tol =   0.100000E-10
 Iteration #         83
 delta_qm =   0.272565E-04 delta_en =   0.331756E-07 tol =   0.100000E-10
 Iteration #         84
 delta_qm =   0.327183E-04 delta_en =   0.398234E-07 tol =   0.100000E-10
 Iteration #         85
 delta_qm =   0.341144E-04 delta_en =   0.415227E-07 tol =   0.100000E-10
 Iteration #         86
 delta_qm =   0.288983E-04 delta_en =   0.351738E-07 tol =   0.100000E-10
 Iteration #         87
 delta_qm =   0.225102E-04 delta_en =   0.273985E-07 tol =   0.100000E-10
 Iteration #         88
 delta_qm =   0.233945E-04 delta_en =   0.284749E-07 tol =   0.100000E-10
 Iteration #         89
 delta_qm =   0.278426E-04 delta_en =   0.338889E-07 tol =   0.100000E-10
 Iteration #         90
 delta_qm =   0.279958E-04 delta_en =   0.340754E-07 tol =   0.100000E-10
 Iteration #         91
 delta_qm =   0.229871E-04 delta_en =   0.279790E-07 tol =   0.100000E-10
 Iteration #         92
 delta_qm =   0.183360E-04 delta_en =   0.223179E-07 tol =   0.100000E-10
 Iteration #         93
 delta_qm =   0.201538E-04 delta_en =   0.245304E-07 tol =   0.100000E-10
 Iteration #         94
 delta_qm =   0.235577E-04 delta_en =   0.286736E-07 tol =   0.100000E-10
 Iteration #         95
 delta_qm =   0.228268E-04 delta_en =   0.277838E-07 tol =   0.100000E-10
 Iteration #         96
 delta_qm =   0.182457E-04 delta_en =   0.222080E-07 tol =   0.100000E-10
 Iteration #         97
 delta_qm =   0.151311E-04 delta_en =   0.184170E-07 tol =   0.100000E-10
 Iteration #         98
 delta_qm =   0.173761E-04 delta_en =   0.211495E-07 tol =   0.100000E-10
 Iteration #         99
 delta_qm =   0.198100E-04 delta_en =   0.241120E-07 tol =   0.100000E-10
 Iteration #        100
 delta_qm =   0.184961E-04 delta_en =   0.225127E-07 tol =   0.100000E-10
 Iteration #        101
 delta_qm =   0.144816E-04 delta_en =   0.176264E-07 tol =   0.100000E-10
 Iteration #        102
 delta_qm =   0.126532E-04 delta_en =   0.154010E-07 tol =   0.100000E-10
 Iteration #        103
 delta_qm =   0.149590E-04 delta_en =   0.182075E-07 tol =   0.100000E-10
 Iteration #        104
 delta_qm =   0.165523E-04 delta_en =   0.201468E-07 tol =   0.100000E-10
 Iteration #        105
 delta_qm =   0.148988E-04 delta_en =   0.181342E-07 tol =   0.100000E-10
 Iteration #        106
 delta_qm =   0.115243E-04 delta_en =   0.140270E-07 tol =   0.100000E-10
 Iteration #        107
 delta_qm =   0.107079E-04 delta_en =   0.130332E-07 tol =   0.100000E-10
 Iteration #        108
 delta_qm =   0.128367E-04 delta_en =   0.156243E-07 tol =   0.100000E-10
 Iteration #        109
 delta_qm =   0.137403E-04 delta_en =   0.167241E-07 tol =   0.100000E-10
 Iteration #        110
 delta_qm =   0.119368E-04 delta_en =   0.145290E-07 tol =   0.100000E-10
 Iteration #        111
 delta_qm =   0.922406E-05 delta_en =   0.112272E-07 tol =   0.100000E-10
 Iteration #        112
 delta_qm =   0.914616E-05 delta_en =   0.111323E-07 tol =   0.100000E-10
 Iteration #        113
 delta_qm =   0.109665E-04 delta_en =   0.133480E-07 tol =   0.100000E-10
 Iteration #        114
 delta_qm =   0.113312E-04 delta_en =   0.137919E-07 tol =   0.100000E-10
 Iteration #        115
 delta_qm =   0.952028E-05 delta_en =   0.115877E-07 tol =   0.100000E-10
 Iteration #        116
 delta_qm =   0.744966E-05 delta_en =   0.906743E-08 tol =   0.100000E-10
 Iteration #        117
 delta_qm =   0.785985E-05 delta_en =   0.956670E-08 tol =   0.100000E-10
 Iteration #        118
 delta_qm =   0.931917E-05 delta_en =   0.113429E-07 tol =   0.100000E-10
 Iteration #        119
 delta_qm =   0.928362E-05 delta_en =   0.112997E-07 tol =   0.100000E-10
 Iteration #        120
 delta_qm =   0.756752E-05 delta_en =   0.921089E-08 tol =   0.100000E-10
 Iteration #        121
 delta_qm =   0.608745E-05 delta_en =   0.740940E-08 tol =   0.100000E-10
 Iteration #        122
 delta_qm =   0.677415E-05 delta_en =   0.824523E-08 tol =   0.100000E-10
 Iteration #        123
 delta_qm =   0.787298E-05 delta_en =   0.958269E-08 tol =   0.100000E-10
 Iteration #        124
 delta_qm =   0.755740E-05 delta_en =   0.919857E-08 tol =   0.100000E-10
 Iteration #        125
 delta_qm =   0.600522E-05 delta_en =   0.730932E-08 tol =   0.100000E-10
 Iteration #        126
 delta_qm =   0.504050E-05 delta_en =   0.613510E-08 tol =   0.100000E-10
 Iteration #        127
 delta_qm =   0.583946E-05 delta_en =   0.710756E-08 tol =   0.100000E-10
 Iteration #        128
 delta_qm =   0.660993E-05 delta_en =   0.804535E-08 tol =   0.100000E-10
 Iteration #        129
 delta_qm =   0.611425E-05 delta_en =   0.744203E-08 tol =   0.100000E-10
 Iteration #        130
 delta_qm =   0.476819E-05 delta_en =   0.580366E-08 tol =   0.100000E-10
 Iteration #        131
 delta_qm =   0.422857E-05 delta_en =   0.514685E-08 tol =   0.100000E-10
 Iteration #        132
 delta_qm =   0.502377E-05 delta_en =   0.611474E-08 tol =   0.100000E-10
 Iteration #        133
 delta_qm =   0.551388E-05 delta_en =   0.671128E-08 tol =   0.100000E-10
 Iteration #        134
 delta_qm =   0.491810E-05 delta_en =   0.598612E-08 tol =   0.100000E-10
 Iteration #        135
 delta_qm =   0.379885E-05 delta_en =   0.462382E-08 tol =   0.100000E-10
 Iteration #        136
 delta_qm =   0.358788E-05 delta_en =   0.436703E-08 tol =   0.100000E-10
 Iteration #        137
 delta_qm =   0.430660E-05 delta_en =   0.524183E-08 tol =   0.100000E-10
 Iteration #        138
 delta_qm =   0.456954E-05 delta_en =   0.556187E-08 tol =   0.100000E-10
 Iteration #        139
 delta_qm =   0.393548E-05 delta_en =   0.479011E-08 tol =   0.100000E-10
 Iteration #        140
 delta_qm =   0.304662E-05 delta_en =   0.370822E-08 tol =   0.100000E-10
 Iteration #        141
 delta_qm =   0.307026E-05 delta_en =   0.373700E-08 tol =   0.100000E-10
 Iteration #        142
 delta_qm =   0.367448E-05 delta_en =   0.447243E-08 tol =   0.100000E-10
 Iteration #        143
 delta_qm =   0.376213E-05 delta_en =   0.457911E-08 tol =   0.100000E-10
 Iteration #        144
 delta_qm =   0.313570E-05 delta_en =   0.381665E-08 tol =   0.100000E-10
 Iteration #        145
 delta_qm =   0.246730E-05 delta_en =   0.300310E-08 tol =   0.100000E-10
 Iteration #        146
 delta_qm =   0.264116E-05 delta_en =   0.321472E-08 tol =   0.100000E-10
 Iteration #        147
 delta_qm =   0.311804E-05 delta_en =   0.379516E-08 tol =   0.100000E-10
 Iteration #        148
 delta_qm =   0.307726E-05 delta_en =   0.374552E-08 tol =   0.100000E-10
 Iteration #        149
 delta_qm =   0.249101E-05 delta_en =   0.303196E-08 tol =   0.100000E-10
 Iteration #        150
 delta_qm =   0.202272E-05 delta_en =   0.246197E-08 tol =   0.100000E-10
 Iteration #        151
 delta_qm =   0.227697E-05 delta_en =   0.277144E-08 tol =   0.100000E-10
 Iteration #        152
 delta_qm =   0.263010E-05 delta_en =   0.320125E-08 tol =   0.100000E-10
 Iteration #        153
 delta_qm =   0.250109E-05 delta_en =   0.304423E-08 tol =   0.100000E-10
 Iteration #        154
 delta_qm =   0.197656E-05 delta_en =   0.240580E-08 tol =   0.100000E-10
 Iteration #        155
 delta_qm =   0.168052E-05 delta_en =   0.204546E-08 tol =   0.100000E-10
 Iteration #        156
 delta_qm =   0.196217E-05 delta_en =   0.238827E-08 tol =   0.100000E-10
 Iteration #        157
 delta_qm =   0.220460E-05 delta_en =   0.268335E-08 tol =   0.100000E-10
 Iteration #        158
 delta_qm =   0.202043E-05 delta_en =   0.245919E-08 tol =   0.100000E-10
 Iteration #        159
 delta_qm =   0.157031E-05 delta_en =   0.191131E-08 tol =   0.100000E-10
 Iteration #        160
 delta_qm =   0.141417E-05 delta_en =   0.172128E-08 tol =   0.100000E-10
 Iteration #        161
 delta_qm =   0.168678E-05 delta_en =   0.205308E-08 tol =   0.100000E-10
 Iteration #        162
 delta_qm =   0.183601E-05 delta_en =   0.223472E-08 tol =   0.100000E-10
 Iteration #        163
 delta_qm =   0.162293E-05 delta_en =   0.197537E-08 tol =   0.100000E-10
 Iteration #        164
 delta_qm =   0.125277E-05 delta_en =   0.152483E-08 tol =   0.100000E-10
 Iteration #        165
 delta_qm =   0.120284E-05 delta_en =   0.146405E-08 tol =   0.100000E-10
 Iteration #        166
 delta_qm =   0.144439E-05 delta_en =   0.175806E-08 tol =   0.100000E-10
 Iteration #        167
 delta_qm =   0.151904E-05 delta_en =   0.184891E-08 tol =   0.100000E-10
 Iteration #        168
 delta_qm =   0.129714E-05 delta_en =   0.157883E-08 tol =   0.100000E-10
 Iteration #        169
 delta_qm =   0.100690E-05 delta_en =   0.122556E-08 tol =   0.100000E-10
 Iteration #        170
 delta_qm =   0.103100E-05 delta_en =   0.125489E-08 tol =   0.100000E-10
 Iteration #        171
 delta_qm =   0.123076E-05 delta_en =   0.149803E-08 tol =   0.100000E-10
 Iteration #        172
 delta_qm =   0.124856E-05 delta_en =   0.151970E-08 tol =   0.100000E-10
 Iteration #        173
 delta_qm =   0.103260E-05 delta_en =   0.125685E-08 tol =   0.100000E-10
 Iteration #        174
 delta_qm =   0.817802E-06 delta_en =   0.995397E-09 tol =   0.100000E-10
 Iteration #        175
 delta_qm =   0.887634E-06 delta_en =   0.108039E-08 tol =   0.100000E-10
 Iteration #        176
 delta_qm =   0.104284E-05 delta_en =   0.126931E-08 tol =   0.100000E-10
 Iteration #        177
 delta_qm =   0.101961E-05 delta_en =   0.124103E-08 tol =   0.100000E-10
 Iteration #        178
 delta_qm =   0.819905E-06 delta_en =   0.997956E-09 tol =   0.100000E-10
 Iteration #        179
 delta_qm =   0.672679E-06 delta_en =   0.818759E-09 tol =   0.100000E-10
 Iteration #        180
 delta_qm =   0.765327E-06 delta_en =   0.931526E-09 tol =   0.100000E-10
 Iteration #        181
 delta_qm =   0.878274E-06 delta_en =   0.106900E-08 tol =   0.100000E-10
 Iteration #        182
 delta_qm =   0.827401E-06 delta_en =   0.100708E-08 tol =   0.100000E-10
 Iteration #        183
 delta_qm =   0.650619E-06 delta_en =   0.791908E-09 tol =   0.100000E-10
 Iteration #        184
 delta_qm =   0.560753E-06 delta_en =   0.682527E-09 tol =   0.100000E-10
 Iteration #        185
 delta_qm =   0.659221E-06 delta_en =   0.802378E-09 tol =   0.100000E-10
 Iteration #        186
 delta_qm =   0.734992E-06 delta_en =   0.894604E-09 tol =   0.100000E-10
 Iteration #        187
 delta_qm =   0.667404E-06 delta_en =   0.812339E-09 tol =   0.100000E-10
 Iteration #        188
 delta_qm =   0.517285E-06 delta_en =   0.629619E-09 tol =   0.100000E-10
 Iteration #        189
 delta_qm =   0.473272E-06 delta_en =   0.576048E-09 tol =   0.100000E-10
 Iteration #        190
 delta_qm =   0.566209E-06 delta_en =   0.689167E-09 tol =   0.100000E-10
 Iteration #        191
 delta_qm =   0.611095E-06 delta_en =   0.743802E-09 tol =   0.100000E-10
 Iteration #        192
 delta_qm =   0.535383E-06 delta_en =   0.651647E-09 tol =   0.100000E-10
 Iteration #        193
 delta_qm =   0.413331E-06 delta_en =   0.503091E-09 tol =   0.100000E-10
 Iteration #        194
 delta_qm =   0.403454E-06 delta_en =   0.491068E-09 tol =   0.100000E-10
 Iteration #        195
 delta_qm =   0.484283E-06 delta_en =   0.589450E-09 tol =   0.100000E-10
 Iteration #        196
 delta_qm =   0.504755E-06 delta_en =   0.614369E-09 tol =   0.100000E-10
 Iteration #        197
 delta_qm =   0.427429E-06 delta_en =   0.520250E-09 tol =   0.100000E-10
 Iteration #        198
 delta_qm =   0.333001E-06 delta_en =   0.405316E-09 tol =   0.100000E-10
 Iteration #        199
 delta_qm =   0.346307E-06 delta_en =   0.421511E-09 tol =   0.100000E-10
 Iteration #        200
 delta_qm =   0.412091E-06 delta_en =   0.501581E-09 tol =   0.100000E-10

%%%% ELECTRONS %%%%%%%%%%%%%%%%%%%%%%%%%%%%%%%%%%%%%%%%%%%%%%%%%%%%%%%%%%%%%%%%%
 number of electrons        =         89
 total electronic charge    =     89.0000000
 number of spin components  =  1

%%%% BOUNDARY %%%%%%%%%%%%%%%%%%%%%%%%%%%%%%%%%%%%%%%%%%%%%%%%%%%%%%%%%%%%%%%%%%
 boundary mode              = electronic           
 boundary is built as a function of a smooth density
 function type              =  1 
 using the optimal SCCS function with parameters 
 rhomax                     =      0.0050000 
 rhomin                     =      0.0001000 

%%%% DIELECTRIC %%%%%%%%%%%%%%%%%%%%%%%%%%%%%%%%%%%%%%%%%%%%%%%%%%%%%%%%%%%%%%%%%
 dielectric build on homogeneous background
 environment bulk permitt.  =    100.0000000 
 dielectric flags
 need gradient              =  F 
 need factor depend. sqrt   =  F 
 need gradient of logarithm =  T 

%%%% COMPUTE ELECTROSTATIC POTENTIAL %%%%%%%%%%%%%%%%%%%%%%%%%%%%%%%%%%%%%%%%%%%
 Starting from polarization: rhoiter =      1.218591 jellium =      0.000000
 Iteration #          1
 delta_qm =   0.764221E-03 delta_en =   0.930180E-06 tol =   0.100000E-10
 Iteration #          2
 delta_qm =   0.679400E-03 delta_en =   0.826939E-06 tol =   0.100000E-10
 Iteration #          3
 delta_qm =   0.506961E-03 delta_en =   0.617053E-06 tol =   0.100000E-10
 Iteration #          4
 delta_qm =   0.438730E-03 delta_en =   0.534005E-06 tol =   0.100000E-10
 Iteration #          5
 delta_qm =   0.303938E-03 delta_en =   0.369942E-06 tol =   0.100000E-10
 Iteration #          6
 delta_qm =   0.269882E-03 delta_en =   0.328490E-06 tol =   0.100000E-10
 Iteration #          7
 delta_qm =   0.198324E-03 delta_en =   0.241393E-06 tol =   0.100000E-10
 Iteration #          8
 delta_qm =   0.143372E-03 delta_en =   0.174507E-06 tol =   0.100000E-10
 Iteration #          9
 delta_qm =   0.118951E-03 delta_en =   0.144783E-06 tol =   0.100000E-10
 Iteration #         10
 delta_qm =   0.800651E-04 delta_en =   0.974521E-07 tol =   0.100000E-10
 Iteration #         11
 delta_qm =   0.593629E-04 delta_en =   0.722543E-07 tol =   0.100000E-10
 Iteration #         12
 delta_qm =   0.480618E-04 delta_en =   0.584990E-07 tol =   0.100000E-10
 Iteration #         13
 delta_qm =   0.362469E-04 delta_en =   0.441183E-07 tol =   0.100000E-10
 Iteration #         14
 delta_qm =   0.281768E-04 delta_en =   0.342957E-07 tol =   0.100000E-10
 Iteration #         15
 delta_qm =   0.222986E-04 delta_en =   0.271409E-07 tol =   0.100000E-10
 Iteration #         16
 delta_qm =   0.236960E-04 delta_en =   0.288419E-07 tol =   0.100000E-10
 Iteration #         17
 delta_qm =   0.264321E-04 delta_en =   0.321722E-07 tol =   0.100000E-10
 Iteration #         18
 delta_qm =   0.236435E-04 delta_en =   0.287779E-07 tol =   0.100000E-10
 Iteration #         19
 delta_qm =   0.177633E-04 delta_en =   0.216208E-07 tol =   0.100000E-10
 Iteration #         20
 delta_qm =   0.162995E-04 delta_en =   0.198391E-07 tol =   0.100000E-10
 Iteration #         21
 delta_qm =   0.196589E-04 delta_en =   0.239281E-07 tol =   0.100000E-10
 Iteration #         22
 delta_qm =   0.209891E-04 delta_en =   0.255471E-07 tol =   0.100000E-10
 Iteration #         23
 delta_qm =   0.180663E-04 delta_en =   0.219896E-07 tol =   0.100000E-10
 Iteration #         24
 delta_qm =   0.136213E-04 delta_en =   0.165793E-07 tol =   0.100000E-10
 Iteration #         25
 delta_qm =   0.133921E-04 delta_en =   0.163003E-07 tol =   0.100000E-10
 Iteration #         26
 delta_qm =   0.164755E-04 delta_en =   0.200534E-07 tol =   0.100000E-10
 Iteration #         27
 delta_qm =   0.173480E-04 delta_en =   0.211153E-07 tol =   0.100000E-10
 Iteration #         28
 delta_qm =   0.146341E-04 delta_en =   0.178121E-07 tol =   0.100000E-10
 Iteration #         29
 delta_qm =   0.111126E-04 delta_en =   0.135259E-07 tol =   0.100000E-10
 Iteration #         30
 delta_qm =   0.115837E-04 delta_en =   0.140993E-07 tol =   0.100000E-10
 Iteration #         31
 delta_qm =   0.142132E-04 delta_en =   0.172998E-07 tol =   0.100000E-10
 Iteration #         32
 delta_qm =   0.145563E-04 delta_en =   0.177173E-07 tol =   0.100000E-10
 Iteration #         33
 delta_qm =   0.119581E-04 delta_en =   0.145549E-07 tol =   0.100000E-10
 Iteration #         34
 delta_qm =   0.922557E-05 delta_en =   0.112290E-07 tol =   0.100000E-10
 Iteration #         35
 delta_qm =   0.101252E-04 delta_en =   0.123241E-07 tol =   0.100000E-10
 Iteration #         36
 delta_qm =   0.122444E-04 delta_en =   0.149035E-07 tol =   0.100000E-10
 Iteration #         37
 delta_qm =   0.121604E-04 delta_en =   0.148012E-07 tol =   0.100000E-10
 Iteration #         38
 delta_qm =   0.974263E-05 delta_en =   0.118584E-07 tol =   0.100000E-10
 Iteration #         39
 delta_qm =   0.771734E-05 delta_en =   0.939324E-08 tol =   0.100000E-10
 Iteration #         40
 delta_qm =   0.884934E-05 delta_en =   0.107711E-07 tol =   0.100000E-10
 Iteration #         41
 delta_qm =   0.104983E-04 delta_en =   0.127781E-07 tol =   0.100000E-10
 Iteration #         42
 delta_qm =   0.101124E-04 delta_en =   0.123084E-07 tol =   0.100000E-10
 Iteration #         43
 delta_qm =   0.792585E-05 delta_en =   0.964704E-08 tol =   0.100000E-10
 Iteration #         44
 delta_qm =   0.651257E-05 delta_en =   0.792685E-08 tol =   0.100000E-10
 Iteration #         45
 delta_qm =   0.773002E-05 delta_en =   0.940868E-08 tol =   0.100000E-10
 Iteration #         46
 delta_qm =   0.896527E-05 delta_en =   0.109122E-07 tol =   0.100000E-10
 Iteration #         47
 delta_qm =   0.837654E-05 delta_en =   0.101956E-07 tol =   0.100000E-10
 Iteration #         48
 delta_qm =   0.644798E-05 delta_en =   0.784823E-08 tol =   0.100000E-10
 Iteration #         49
 delta_qm =   0.554642E-05 delta_en =   0.675088E-08 tol =   0.100000E-10
 Iteration #         50
 delta_qm =   0.674361E-05 delta_en =   0.820805E-08 tol =   0.100000E-10
 Iteration #         51
 delta_qm =   0.762540E-05 delta_en =   0.928134E-08 tol =   0.100000E-10
 Iteration #         52
 delta_qm =   0.691239E-05 delta_en =   0.841349E-08 tol =   0.100000E-10
 Iteration #         53
 delta_qm =   0.525279E-05 delta_en =   0.639349E-08 tol =   0.100000E-10
 Iteration #         54
 delta_qm =   0.476294E-05 delta_en =   0.579727E-08 tol =   0.100000E-10
 Iteration #         55
 delta_qm =   0.587036E-05 delta_en =   0.714517E-08 tol =   0.100000E-10
 Iteration #         56
 delta_qm =   0.645914E-05 delta_en =   0.786182E-08 tol =   0.100000E-10
 Iteration #         57
 delta_qm =   0.568357E-05 delta_en =   0.691782E-08 tol =   0.100000E-10
 Iteration #         58
 delta_qm =   0.429181E-05 delta_en =   0.522382E-08 tol =   0.100000E-10
 Iteration #         59
 delta_qm =   0.411837E-05 delta_en =   0.501272E-08 tol =   0.100000E-10
 Iteration #         60
 delta_qm =   0.509597E-05 delta_en =   0.620262E-08 tol =   0.100000E-10
 Iteration #         61
 delta_qm =   0.544865E-05 delta_en =   0.663188E-08 tol =   0.100000E-10
 Iteration #         62
 delta_qm =   0.465771E-05 delta_en =   0.566919E-08 tol =   0.100000E-10
 Iteration #         63
 delta_qm =   0.352325E-05 delta_en =   0.428836E-08 tol =   0.100000E-10
 Iteration #         64
 delta_qm =   0.357949E-05 delta_en =   0.435681E-08 tol =   0.100000E-10
 Iteration #         65
 delta_qm =   0.440947E-05 delta_en =   0.536704E-08 tol =   0.100000E-10
 Iteration #         66
 delta_qm =   0.457724E-05 delta_en =   0.557124E-08 tol =   0.100000E-10
 Iteration #         67
 delta_qm =   0.380593E-05 delta_en =   0.463243E-08 tol =   0.100000E-10
 Iteration #         68
 delta_qm =   0.291110E-05 delta_en =   0.354328E-08 tol =   0.100000E-10
 Iteration #         69
 delta_qm =   0.312167E-05 delta_en =   0.379957E-08 tol =   0.100000E-10
 Iteration #         70
 delta_qm =   0.380193E-05 delta_en =   0.462756E-08 tol =   0.100000E-10
 Iteration #         71
 delta_qm =   0.382938E-05 delta_en =   0.466097E-08 tol =   0.100000E-10
 Iteration #         72
 delta_qm =   0.310264E-05 delta_en =   0.377641E-08 tol =   0.100000E-10
 Iteration #         73
 delta_qm =   0.242456E-05 delta_en =   0.295108E-08 tol =   0.100000E-10
 Iteration #         74
 delta_qm =   0.272708E-05 delta_en =   0.331930E-08 tol =   0.100000E-10
 Iteration #         75
 delta_qm =   0.326575E-05 delta_en =   0.397494E-08 tol =   0.100000E-10
 Iteration #         76
 delta_qm =   0.319066E-05 delta_en =   0.388355E-08 tol =   0.100000E-10
 Iteration #         77
 delta_qm =   0.252531E-05 delta_en =   0.307371E-08 tol =   0.100000E-10
 Iteration #         78
 delta_qm =   0.203749E-05 delta_en =   0.247995E-08 tol =   0.100000E-10
 Iteration #         79
 delta_qm =   0.238304E-05 delta_en =   0.290054E-08 tol =   0.100000E-10
 Iteration #         80
 delta_qm =   0.279419E-05 delta_en =   0.340098E-08 tol =   0.100000E-10
 Iteration #         81
 delta_qm =   0.264785E-05 delta_en =   0.322286E-08 tol =   0.100000E-10
 Iteration #         82
 delta_qm =   0.205419E-05 delta_en =   0.250029E-08 tol =   0.100000E-10
 Iteration #         83
 delta_qm =   0.172808E-05 delta_en =   0.210335E-08 tol =   0.100000E-10
 Iteration #         84
 delta_qm =   0.208052E-05 delta_en =   0.253233E-08 tol =   0.100000E-10
 Iteration #         85
 delta_qm =   0.238110E-05 delta_en =   0.289818E-08 tol =   0.100000E-10
 Iteration #         86
 delta_qm =   0.218886E-05 delta_en =   0.266419E-08 tol =   0.100000E-10
 Iteration #         87
 delta_qm =   0.167208E-05 delta_en =   0.203520E-08 tol =   0.100000E-10
 Iteration #         88
 delta_qm =   0.147851E-05 delta_en =   0.179958E-08 tol =   0.100000E-10
 Iteration #         89
 delta_qm =   0.181310E-05 delta_en =   0.220683E-08 tol =   0.100000E-10
 Iteration #         90
 delta_qm =   0.202079E-05 delta_en =   0.245963E-08 tol =   0.100000E-10
 Iteration #         91
 delta_qm =   0.180271E-05 delta_en =   0.219419E-08 tol =   0.100000E-10
 Iteration #         92
 delta_qm =   0.136402E-05 delta_en =   0.166024E-08 tol =   0.100000E-10
 Iteration #         93
 delta_qm =   0.127460E-05 delta_en =   0.155140E-08 tol =   0.100000E-10
 Iteration #         94
 delta_qm =   0.157606E-05 delta_en =   0.191832E-08 tol =   0.100000E-10
 Iteration #         95
 delta_qm =   0.170793E-05 delta_en =   0.207883E-08 tol =   0.100000E-10
 Iteration #         96
 delta_qm =   0.147955E-05 delta_en =   0.180085E-08 tol =   0.100000E-10
 Iteration #         97
 delta_qm =   0.111706E-05 delta_en =   0.135964E-08 tol =   0.100000E-10
 Iteration #         98
 delta_qm =   0.110542E-05 delta_en =   0.134547E-08 tol =   0.100000E-10
 Iteration #         99
 delta_qm =   0.136585E-05 delta_en =   0.166246E-08 tol =   0.100000E-10
 Iteration #        100
 delta_qm =   0.143754E-05 delta_en =   0.174972E-08 tol =   0.100000E-10
 Iteration #        101
 delta_qm =   0.121053E-05 delta_en =   0.147341E-08 tol =   0.100000E-10
 Iteration #        102
 delta_qm =   0.920017E-06 delta_en =   0.111981E-08 tol =   0.100000E-10
 Iteration #        103
 delta_qm =   0.962730E-06 delta_en =   0.117180E-08 tol =   0.100000E-10
 Iteration #        104
 delta_qm =   0.117965E-05 delta_en =   0.143582E-08 tol =   0.100000E-10
 Iteration #        105
 delta_qm =   0.120496E-05 delta_en =   0.146663E-08 tol =   0.100000E-10
 Iteration #        106
 delta_qm =   0.987834E-06 delta_en =   0.120235E-08 tol =   0.100000E-10
 Iteration #        107
 delta_qm =   0.763302E-06 delta_en =   0.929062E-09 tol =   0.100000E-10
 Iteration #        108
 delta_qm =   0.840533E-06 delta_en =   0.102306E-08 tol =   0.100000E-10
 Iteration #        109
 delta_qm =   0.101508E-05 delta_en =   0.123552E-08 tol =   0.100000E-10
 Iteration #        110
 delta_qm =   0.100588E-05 delta_en =   0.122431E-08 tol =   0.100000E-10
 Iteration #        111
 delta_qm =   0.804524E-06 delta_en =   0.979235E-09 tol =   0.100000E-10
 Iteration #        112
 delta_qm =   0.638734E-06 delta_en =   0.777443E-09 tol =   0.100000E-10
 Iteration #        113
 delta_qm =   0.734517E-06 delta_en =   0.894026E-09 tol =   0.100000E-10
 Iteration #        114
 delta_qm =   0.870104E-06 delta_en =   0.105906E-08 tol =   0.100000E-10
 Iteration #        115
 delta_qm =   0.836295E-06 delta_en =   0.101791E-08 tol =   0.100000E-10
 Iteration #        116
 delta_qm =   0.654521E-06 delta_en =   0.796658E-09 tol =   0.100000E-10
 Iteration #        117
 delta_qm =   0.539431E-06 delta_en =   0.656575E-09 tol =   0.100000E-10
 Iteration #        118
 delta_qm =   0.641625E-06 delta_en =   0.780961E-09 tol =   0.100000E-10
 Iteration #        119
 delta_qm =   0.742865E-06 delta_en =   0.904186E-09 tol =   0.100000E-10
 Iteration #        120
 delta_qm =   0.692563E-06 delta_en =   0.842961E-09 tol =   0.100000E-10
 Iteration #        121
 delta_qm =   0.532514E-06 delta_en =   0.648155E-09 tol =   0.100000E-10
 Iteration #        122
 delta_qm =   0.459710E-06 delta_en =   0.559541E-09 tol =   0.100000E-10
 Iteration #        123
 delta_qm =   0.559681E-06 delta_en =   0.681222E-09 tol =   0.100000E-10
 Iteration #        124
 delta_qm =   0.631657E-06 delta_en =   0.768828E-09 tol =   0.100000E-10
 Iteration #        125
 delta_qm =   0.571355E-06 delta_en =   0.695432E-09 tol =   0.100000E-10
 Iteration #        126
 delta_qm =   0.433877E-06 delta_en =   0.528099E-09 tol =   0.100000E-10
 Iteration #        127
 delta_qm =   0.394990E-06 delta_en =   0.480766E-09 tol =   0.100000E-10
 Iteration #        128
 delta_qm =   0.487118E-06 delta_en =   0.592901E-09 tol =   0.100000E-10
 Iteration #        129
 delta_qm =   0.534890E-06 delta_en =   0.651047E-09 tol =   0.100000E-10
 Iteration #        130
 delta_qm =   0.469669E-06 delta_en =   0.571663E-09 tol =   0.100000E-10
 Iteration #        131
 delta_qm =   0.354601E-06 delta_en =   0.431607E-09 tol =   0.100000E-10
 Iteration #        132
 delta_qm =   0.341684E-06 delta_en =   0.415885E-09 tol =   0.100000E-10
 Iteration #        133
 delta_qm =   0.422767E-06 delta_en =   0.514576E-09 tol =   0.100000E-10
 Iteration #        134
 delta_qm =   0.451075E-06 delta_en =   0.549031E-09 tol =   0.100000E-10
 Iteration #        135
 delta_qm =   0.384810E-06 delta_en =   0.468375E-09 tol =   0.100000E-10
 Iteration #        136
 delta_qm =   0.291220E-06 delta_en =   0.354462E-09 tol =   0.100000E-10
 Iteration #        137
 delta_qm =   0.297065E-06 delta_en =   0.361576E-09 tol =   0.100000E-10
 Iteration #        138
 delta_qm =   0.365724E-06 delta_en =   0.445145E-09 tol =   0.100000E-10
 Iteration #        139
 delta_qm =   0.378821E-06 delta_en =   0.461087E-09 tol =   0.100000E-10
 Iteration #        140
 delta_qm =   0.314378E-06 delta_en =   0.382648E-09 tol =   0.100000E-10
 Iteration #        141
 delta_qm =   0.240750E-06 delta_en =   0.293031E-09 tol =   0.100000E-10
 Iteration #        142
 delta_qm =   0.259116E-06 delta_en =   0.315386E-09 tol =   0.100000E-10
 Iteration #        143
 delta_qm =   0.315251E-06 delta_en =   0.383711E-09 tol =   0.100000E-10
 Iteration #        144
 delta_qm =   0.316833E-06 delta_en =   0.385637E-09 tol =   0.100000E-10
 Iteration #        145
 delta_qm =   0.256248E-06 delta_en =   0.311895E-09 tol =   0.100000E-10
 Iteration #        146
 delta_qm =   0.200637E-06 delta_en =   0.244207E-09 tol =   0.100000E-10
 Iteration #        147
 delta_qm =   0.226378E-06 delta_en =   0.275539E-09 tol =   0.100000E-10
 Iteration #        148
 delta_qm =   0.270716E-06 delta_en =   0.329505E-09 tol =   0.100000E-10
 Iteration #        149
 delta_qm =   0.263910E-06 delta_en =   0.321221E-09 tol =   0.100000E-10
 Iteration #        150
 delta_qm =   0.208549E-06 delta_en =   0.253838E-09 tol =   0.100000E-10
 Iteration #        151
 delta_qm =   0.168718E-06 delta_en =   0.205357E-09 tol =   0.100000E-10
 Iteration #        152
 delta_qm =   0.197813E-06 delta_en =   0.240770E-09 tol =   0.100000E-10
 Iteration #        153
 delta_qm =   0.231559E-06 delta_en =   0.281845E-09 tol =   0.100000E-10
 Iteration #        154
 delta_qm =   0.218950E-06 delta_en =   0.266498E-09 tol =   0.100000E-10
 Iteration #        155
 delta_qm =   0.169644E-06 delta_en =   0.206484E-09 tol =   0.100000E-10
 Iteration #        156
 delta_qm =   0.143190E-06 delta_en =   0.174285E-09 tol =   0.100000E-10
 Iteration #        157
 delta_qm =   0.172684E-06 delta_en =   0.210184E-09 tol =   0.100000E-10
 Iteration #        158
 delta_qm =   0.197268E-06 delta_en =   0.240107E-09 tol =   0.100000E-10
 Iteration #        159
 delta_qm =   0.180946E-06 delta_en =   0.220241E-09 tol =   0.100000E-10
 Iteration #        160
 delta_qm =   0.138102E-06 delta_en =   0.168092E-09 tol =   0.100000E-10
 Iteration #        161
 delta_qm =   0.122583E-06 delta_en =   0.149203E-09 tol =   0.100000E-10
 Iteration #        162
 delta_qm =   0.150463E-06 delta_en =   0.183138E-09 tol =   0.100000E-10
 Iteration #        163
 delta_qm =   0.167367E-06 delta_en =   0.203713E-09 tol =   0.100000E-10
 Iteration #        164
 delta_qm =   0.148986E-06 delta_en =   0.181340E-09 tol =   0.100000E-10
 Iteration #        165
 delta_qm =   0.112683E-06 delta_en =   0.137153E-09 tol =   0.100000E-10
 Iteration #        166
 delta_qm =   0.105729E-06 delta_en =   0.128689E-09 tol =   0.100000E-10
 Iteration #        167
 delta_qm =   0.130766E-06 delta_en =   0.159163E-09 tol =   0.100000E-10
 Iteration #        168
 delta_qm =   0.141413E-06 delta_en =   0.172123E-09 tol =   0.100000E-10
 Iteration #        169
 delta_qm =   0.122249E-06 delta_en =   0.148797E-09 tol =   0.100000E-10
 Iteration #        170
 delta_qm =   0.923134E-07 delta_en =   0.112360E-09 tol =   0.100000E-10
 Iteration #        171
 delta_qm =   0.917283E-07 delta_en =   0.111648E-09 tol =   0.100000E-10
 Iteration #        172
 delta_qm =   0.113298E-06 delta_en =   0.137902E-09 tol =   0.100000E-10
 Iteration #        173
 delta_qm =   0.118990E-06 delta_en =   0.144830E-09 tol =   0.100000E-10
 Iteration #        174
 delta_qm =   0.100001E-06 delta_en =   0.121717E-09 tol =   0.100000E-10
 Iteration #        175
 delta_qm =   0.760662E-07 delta_en =   0.925849E-10 tol =   0.100000E-10
 Iteration #        176
 delta_qm =   0.799067E-07 delta_en =   0.972593E-10 tol =   0.100000E-10
 Iteration #        177
 delta_qm =   0.978268E-07 delta_en =   0.119071E-09 tol =   0.100000E-10
 Iteration #        178
 delta_qm =   0.997091E-07 delta_en =   0.121362E-09 tol =   0.100000E-10
 Iteration #        179
 delta_qm =   0.815903E-07 delta_en =   0.993086E-10 tol =   0.100000E-10
 Iteration #        180
 delta_qm =   0.631459E-07 delta_en =   0.768588E-10 tol =   0.100000E-10
 Iteration #        181
 delta_qm =   0.697723E-07 delta_en =   0.849242E-10 tol =   0.100000E-10
[...]
 Iteration #          6
 delta_qm =   0.316844E-03 delta_en =   0.385650E-06 tol =   0.100000E-10
 Iteration #          7
 delta_qm =   0.245822E-03 delta_en =   0.299205E-06 tol =   0.100000E-10
 Iteration #          8
 delta_qm =   0.191148E-03 delta_en =   0.232658E-06 tol =   0.100000E-10
 Iteration #          9
 delta_qm =   0.146572E-03 delta_en =   0.178402E-06 tol =   0.100000E-10
 Iteration #         10
 delta_qm =   0.114211E-03 delta_en =   0.139013E-06 tol =   0.100000E-10
 Iteration #         11
 delta_qm =   0.943294E-04 delta_en =   0.114814E-06 tol =   0.100000E-10
 Iteration #         12
 delta_qm =   0.748383E-04 delta_en =   0.910902E-07 tol =   0.100000E-10
 Iteration #         13
 delta_qm =   0.574105E-04 delta_en =   0.698778E-07 tol =   0.100000E-10
 Iteration #         14
 delta_qm =   0.464450E-04 delta_en =   0.565310E-07 tol =   0.100000E-10
 Iteration #         15
 delta_qm =   0.401571E-04 delta_en =   0.488777E-07 tol =   0.100000E-10
 Iteration #         16
 delta_qm =   0.341809E-04 delta_en =   0.416037E-07 tol =   0.100000E-10
 Iteration #         17
 delta_qm =   0.288589E-04 delta_en =   0.351259E-07 tol =   0.100000E-10
 Iteration #         18
 delta_qm =   0.246485E-04 delta_en =   0.300012E-07 tol =   0.100000E-10
 Iteration #         19
 delta_qm =   0.202083E-04 delta_en =   0.245968E-07 tol =   0.100000E-10
 Iteration #         20
 delta_qm =   0.169886E-04 delta_en =   0.206778E-07 tol =   0.100000E-10
 Iteration #         21
 delta_qm =   0.166683E-04 delta_en =   0.202880E-07 tol =   0.100000E-10
 Iteration #         22
 delta_qm =   0.165613E-04 delta_en =   0.201578E-07 tol =   0.100000E-10
 Iteration #         23
 delta_qm =   0.142609E-04 delta_en =   0.173578E-07 tol =   0.100000E-10
 Iteration #         24
 delta_qm =   0.108754E-04 delta_en =   0.132372E-07 tol =   0.100000E-10
 Iteration #         25
 delta_qm =   0.100286E-04 delta_en =   0.122064E-07 tol =   0.100000E-10
 Iteration #         26
 delta_qm =   0.118532E-04 delta_en =   0.144272E-07 tol =   0.100000E-10
 Iteration #         27
 delta_qm =   0.126591E-04 delta_en =   0.154082E-07 tol =   0.100000E-10
 Iteration #         28
 delta_qm =   0.110725E-04 delta_en =   0.134771E-07 tol =   0.100000E-10
 Iteration #         29
 delta_qm =   0.846225E-05 delta_en =   0.102999E-07 tol =   0.100000E-10
 Iteration #         30
 delta_qm =   0.808644E-05 delta_en =   0.984250E-08 tol =   0.100000E-10
 Iteration #         31
 delta_qm =   0.997953E-05 delta_en =   0.121467E-07 tol =   0.100000E-10
 Iteration #         32
 delta_qm =   0.109023E-04 delta_en =   0.132699E-07 tol =   0.100000E-10
 Iteration #         33
 delta_qm =   0.964670E-05 delta_en =   0.117416E-07 tol =   0.100000E-10
 Iteration #         34
 delta_qm =   0.736330E-05 delta_en =   0.896232E-08 tol =   0.100000E-10
 Iteration #         35
 delta_qm =   0.700925E-05 delta_en =   0.853139E-08 tol =   0.100000E-10
 Iteration #         36
 delta_qm =   0.874457E-05 delta_en =   0.106435E-07 tol =   0.100000E-10
 Iteration #         37
 delta_qm =   0.962401E-05 delta_en =   0.117140E-07 tol =   0.100000E-10
 Iteration #         38
 delta_qm =   0.853562E-05 delta_en =   0.103892E-07 tol =   0.100000E-10
 Iteration #         39
 delta_qm =   0.649889E-05 delta_en =   0.791020E-08 tol =   0.100000E-10
 Iteration #         40
 delta_qm =   0.617023E-05 delta_en =   0.751016E-08 tol =   0.100000E-10
 Iteration #         41
 delta_qm =   0.772049E-05 delta_en =   0.939708E-08 tol =   0.100000E-10
 Iteration #         42
 delta_qm =   0.851358E-05 delta_en =   0.103624E-07 tol =   0.100000E-10
 Iteration #         43
 delta_qm =   0.755607E-05 delta_en =   0.919696E-08 tol =   0.100000E-10
 Iteration #         44
 delta_qm =   0.574794E-05 delta_en =   0.699617E-08 tol =   0.100000E-10
 Iteration #         45
 delta_qm =   0.544538E-05 delta_en =   0.662790E-08 tol =   0.100000E-10
 Iteration #         46
 delta_qm =   0.681759E-05 delta_en =   0.829810E-08 tol =   0.100000E-10
 Iteration #         47
 delta_qm =   0.752670E-05 delta_en =   0.916121E-08 tol =   0.100000E-10
 Iteration #         48
 delta_qm =   0.668634E-05 delta_en =   0.813835E-08 tol =   0.100000E-10
 Iteration #         49
 delta_qm =   0.508534E-05 delta_en =   0.618967E-08 tol =   0.100000E-10
 Iteration #         50
 delta_qm =   0.480635E-05 delta_en =   0.585010E-08 tol =   0.100000E-10
 Iteration #         51
 delta_qm =   0.601817E-05 delta_en =   0.732508E-08 tol =   0.100000E-10
 Iteration #         52
 delta_qm =   0.665240E-05 delta_en =   0.809705E-08 tol =   0.100000E-10
 Iteration #         53
 delta_qm =   0.591690E-05 delta_en =   0.720183E-08 tol =   0.100000E-10
 Iteration #         54
 delta_qm =   0.450079E-05 delta_en =   0.547819E-08 tol =   0.100000E-10
 Iteration #         55
 delta_qm =   0.424297E-05 delta_en =   0.516438E-08 tol =   0.100000E-10
 Iteration #         56
 delta_qm =   0.531224E-05 delta_en =   0.646585E-08 tol =   0.100000E-10
 Iteration #         57
 delta_qm =   0.587996E-05 delta_en =   0.715686E-08 tol =   0.100000E-10
 Iteration #         58
 delta_qm =   0.523716E-05 delta_en =   0.637446E-08 tol =   0.100000E-10
 Iteration #         59
 delta_qm =   0.398485E-05 delta_en =   0.485020E-08 tol =   0.100000E-10
 Iteration #         60
 delta_qm =   0.374635E-05 delta_en =   0.455991E-08 tol =   0.100000E-10
 Iteration #         61
 delta_qm =   0.468949E-05 delta_en =   0.570786E-08 tol =   0.100000E-10
 Iteration #         62
 delta_qm =   0.519779E-05 delta_en =   0.632655E-08 tol =   0.100000E-10
 Iteration #         63
 delta_qm =   0.463623E-05 delta_en =   0.564304E-08 tol =   0.100000E-10
 Iteration #         64
 delta_qm =   0.352872E-05 delta_en =   0.429502E-08 tol =   0.100000E-10
 Iteration #         65
 delta_qm =   0.330826E-05 delta_en =   0.402669E-08 tol =   0.100000E-10
 Iteration #         66
 delta_qm =   0.414001E-05 delta_en =   0.503906E-08 tol =   0.100000E-10
 Iteration #         67
 delta_qm =   0.459503E-05 delta_en =   0.559290E-08 tol =   0.100000E-10
 Iteration #         68
 delta_qm =   0.410449E-05 delta_en =   0.499583E-08 tol =   0.100000E-10
 Iteration #         69
 delta_qm =   0.312500E-05 delta_en =   0.380363E-08 tol =   0.100000E-10
 Iteration #         70
 delta_qm =   0.292155E-05 delta_en =   0.355599E-08 tol =   0.100000E-10
 Iteration #         71
 delta_qm =   0.365498E-05 delta_en =   0.444870E-08 tol =   0.100000E-10
 Iteration #         72
 delta_qm =   0.406222E-05 delta_en =   0.494438E-08 tol =   0.100000E-10
 Iteration #         73
 delta_qm =   0.363376E-05 delta_en =   0.442287E-08 tol =   0.100000E-10
 Iteration #         74
 delta_qm =   0.276750E-05 delta_en =   0.336850E-08 tol =   0.100000E-10
 Iteration #         75
 delta_qm =   0.258008E-05 delta_en =   0.314037E-08 tol =   0.100000E-10
 Iteration #         76
 delta_qm =   0.322677E-05 delta_en =   0.392750E-08 tol =   0.100000E-10
 Iteration #         77
 delta_qm =   0.359116E-05 delta_en =   0.437102E-08 tol =   0.100000E-10
 Iteration #         78
 delta_qm =   0.321698E-05 delta_en =   0.391558E-08 tol =   0.100000E-10
 Iteration #         79
 delta_qm =   0.245091E-05 delta_en =   0.298315E-08 tol =   0.100000E-10
 Iteration #         80
 delta_qm =   0.227854E-05 delta_en =   0.277335E-08 tol =   0.100000E-10
 Iteration #         81
 delta_qm =   0.284870E-05 delta_en =   0.346732E-08 tol =   0.100000E-10
 Iteration #         82
 delta_qm =   0.317468E-05 delta_en =   0.386410E-08 tol =   0.100000E-10
 Iteration #         83
 delta_qm =   0.284796E-05 delta_en =   0.346643E-08 tol =   0.100000E-10
 Iteration #         84
 delta_qm =   0.217053E-05 delta_en =   0.264188E-08 tol =   0.100000E-10
 Iteration #         85
 delta_qm =   0.201226E-05 delta_en =   0.244925E-08 tol =   0.100000E-10
 Iteration #         86
 delta_qm =   0.251490E-05 delta_en =   0.306104E-08 tol =   0.100000E-10
 Iteration #         87
 delta_qm =   0.280647E-05 delta_en =   0.341593E-08 tol =   0.100000E-10
 Iteration #         88
 delta_qm =   0.252125E-05 delta_en =   0.306877E-08 tol =   0.100000E-10
 Iteration #         89
 delta_qm =   0.192224E-05 delta_en =   0.233967E-08 tol =   0.100000E-10
 Iteration #         90
 delta_qm =   0.177713E-05 delta_en =   0.216305E-08 tol =   0.100000E-10
 Iteration #         91
 delta_qm =   0.222020E-05 delta_en =   0.270234E-08 tol =   0.100000E-10
 Iteration #         92
 delta_qm =   0.248095E-05 delta_en =   0.301971E-08 tol =   0.100000E-10
 Iteration #         93
 delta_qm =   0.223200E-05 delta_en =   0.271670E-08 tol =   0.100000E-10
 Iteration #         94
 delta_qm =   0.170236E-05 delta_en =   0.207205E-08 tol =   0.100000E-10
 Iteration #         95
 delta_qm =   0.156949E-05 delta_en =   0.191033E-08 tol =   0.100000E-10
 Iteration #         96
 delta_qm =   0.196001E-05 delta_en =   0.238565E-08 tol =   0.100000E-10
 Iteration #         97
 delta_qm =   0.219315E-05 delta_en =   0.266942E-08 tol =   0.100000E-10
 Iteration #         98
 delta_qm =   0.197591E-05 delta_en =   0.240501E-08 tol =   0.100000E-10
 Iteration #         99
 delta_qm =   0.150765E-05 delta_en =   0.183505E-08 tol =   0.100000E-10
 Iteration #        100
 delta_qm =   0.138614E-05 delta_en =   0.168716E-08 tol =   0.100000E-10
 Iteration #        101
 delta_qm =   0.173031E-05 delta_en =   0.210607E-08 tol =   0.100000E-10
 Iteration #        102
 delta_qm =   0.193873E-05 delta_en =   0.235974E-08 tol =   0.100000E-10
 Iteration #        103
 delta_qm =   0.174919E-05 delta_en =   0.212905E-08 tol =   0.100000E-10
 Iteration #        104
 delta_qm =   0.133521E-05 delta_en =   0.162517E-08 tol =   0.100000E-10
 Iteration #        105
 delta_qm =   0.122423E-05 delta_en =   0.149008E-08 tol =   0.100000E-10
 Iteration #        106
 delta_qm =   0.152752E-05 delta_en =   0.185923E-08 tol =   0.100000E-10
 Iteration #        107
 delta_qm =   0.171380E-05 delta_en =   0.208597E-08 tol =   0.100000E-10
 Iteration #        108
 delta_qm =   0.154848E-05 delta_en =   0.188475E-08 tol =   0.100000E-10
 Iteration #        109
 delta_qm =   0.118251E-05 delta_en =   0.143930E-08 tol =   0.100000E-10
 Iteration #        110
 delta_qm =   0.108124E-05 delta_en =   0.131605E-08 tol =   0.100000E-10
 Iteration #        111
 delta_qm =   0.134848E-05 delta_en =   0.164132E-08 tol =   0.100000E-10
 Iteration #        112
 delta_qm =   0.151495E-05 delta_en =   0.184394E-08 tol =   0.100000E-10
 Iteration #        113
 delta_qm =   0.137078E-05 delta_en =   0.166846E-08 tol =   0.100000E-10
 Iteration #        114
 delta_qm =   0.104728E-05 delta_en =   0.127470E-08 tol =   0.100000E-10
 Iteration #        115
 delta_qm =   0.954978E-06 delta_en =   0.116236E-08 tol =   0.100000E-10
 Iteration #        116
 delta_qm =   0.119042E-05 delta_en =   0.144894E-08 tol =   0.100000E-10
 Iteration #        117
 delta_qm =   0.133916E-05 delta_en =   0.162998E-08 tol =   0.100000E-10
 Iteration #        118
 delta_qm =   0.121346E-05 delta_en =   0.147698E-08 tol =   0.100000E-10
 Iteration #        119
 delta_qm =   0.927516E-06 delta_en =   0.112894E-08 tol =   0.100000E-10
 Iteration #        120
 delta_qm =   0.843472E-06 delta_en =   0.102664E-08 tol =   0.100000E-10
 Iteration #        121
 delta_qm =   0.105089E-05 delta_en =   0.127910E-08 tol =   0.100000E-10
 Iteration #        122
 delta_qm =   0.118376E-05 delta_en =   0.144083E-08 tol =   0.100000E-10
 Iteration #        123
 delta_qm =   0.107419E-05 delta_en =   0.130746E-08 tol =   0.100000E-10
 Iteration #        124
 delta_qm =   0.821457E-06 delta_en =   0.999846E-09 tol =   0.100000E-10
 Iteration #        125
 delta_qm =   0.744999E-06 delta_en =   0.906783E-09 tol =   0.100000E-10
 Iteration #        126
 delta_qm =   0.927697E-06 delta_en =   0.112916E-08 tol =   0.100000E-10
 Iteration #        127
 delta_qm =   0.104638E-05 delta_en =   0.127362E-08 tol =   0.100000E-10
 Iteration #        128
 delta_qm =   0.950897E-06 delta_en =   0.115739E-08 tol =   0.100000E-10
 Iteration #        129
 delta_qm =   0.727531E-06 delta_en =   0.885522E-09 tol =   0.100000E-10
 Iteration #        130
 delta_qm =   0.658033E-06 delta_en =   0.800933E-09 tol =   0.100000E-10
 Iteration #        131
 delta_qm =   0.818945E-06 delta_en =   0.996788E-09 tol =   0.100000E-10
 Iteration #        132
 delta_qm =   0.924937E-06 delta_en =   0.112580E-08 tol =   0.100000E-10
 Iteration #        133
 delta_qm =   0.841746E-06 delta_en =   0.102454E-08 tol =   0.100000E-10
 Iteration #        134
 delta_qm =   0.644348E-06 delta_en =   0.784276E-09 tol =   0.100000E-10
 Iteration #        135
 delta_qm =   0.581230E-06 delta_en =   0.707451E-09 tol =   0.100000E-10
 Iteration #        136
 delta_qm =   0.722936E-06 delta_en =   0.879930E-09 tol =   0.100000E-10
 Iteration #        137
 delta_qm =   0.817579E-06 delta_en =   0.995125E-09 tol =   0.100000E-10
 Iteration #        138
 delta_qm =   0.745119E-06 delta_en =   0.906929E-09 tol =   0.100000E-10
 Iteration #        139
 delta_qm =   0.570680E-06 delta_en =   0.694610E-09 tol =   0.100000E-10
 Iteration #        140
 delta_qm =   0.513400E-06 delta_en =   0.624891E-09 tol =   0.100000E-10
 Iteration #        141
 delta_qm =   0.638179E-06 delta_en =   0.776767E-09 tol =   0.100000E-10
 Iteration #        142
 delta_qm =   0.722675E-06 delta_en =   0.879612E-09 tol =   0.100000E-10
 Iteration #        143
 delta_qm =   0.659577E-06 delta_en =   0.802812E-09 tol =   0.100000E-10
 Iteration #        144
 delta_qm =   0.505437E-06 delta_en =   0.615199E-09 tol =   0.100000E-10
 Iteration #        145
 delta_qm =   0.453494E-06 delta_en =   0.551976E-09 tol =   0.100000E-10
 Iteration #        146
 delta_qm =   0.563356E-06 delta_en =   0.685695E-09 tol =   0.100000E-10
 Iteration #        147
 delta_qm =   0.638781E-06 delta_en =   0.777500E-09 tol =   0.100000E-10
 Iteration #        148
 delta_qm =   0.583851E-06 delta_en =   0.710641E-09 tol =   0.100000E-10
 Iteration #        149
 delta_qm =   0.447656E-06 delta_en =   0.544870E-09 tol =   0.100000E-10
 Iteration #        150
 delta_qm =   0.400586E-06 delta_en =   0.487578E-09 tol =   0.100000E-10
 Iteration #        151
 delta_qm =   0.497302E-06 delta_en =   0.605297E-09 tol =   0.100000E-10
 Iteration #        152
 delta_qm =   0.564621E-06 delta_en =   0.687235E-09 tol =   0.100000E-10
 Iteration #        153
 delta_qm =   0.516815E-06 delta_en =   0.629047E-09 tol =   0.100000E-10
 Iteration #        154
 delta_qm =   0.396483E-06 delta_en =   0.482584E-09 tol =   0.100000E-10
 Iteration #        155
 delta_qm =   0.353857E-06 delta_en =   0.430701E-09 tol =   0.100000E-10
 Iteration #        156
 delta_qm =   0.438991E-06 delta_en =   0.534323E-09 tol =   0.100000E-10
 Iteration #        157
 delta_qm =   0.499065E-06 delta_en =   0.607443E-09 tol =   0.100000E-10
 Iteration #        158
 delta_qm =   0.457471E-06 delta_en =   0.556816E-09 tol =   0.100000E-10
 Iteration #        159
 delta_qm =   0.351161E-06 delta_en =   0.427420E-09 tol =   0.100000E-10
 Iteration #        160
 delta_qm =   0.312585E-06 delta_en =   0.380466E-09 tol =   0.100000E-10
 Iteration #        161
 delta_qm =   0.387515E-06 delta_en =   0.471668E-09 tol =   0.100000E-10
 Iteration #        162
 delta_qm =   0.441117E-06 delta_en =   0.536911E-09 tol =   0.100000E-10
 Iteration #        163
 delta_qm =   0.404938E-06 delta_en =   0.492875E-09 tol =   0.100000E-10
 Iteration #        164
 delta_qm =   0.311022E-06 delta_en =   0.378564E-09 tol =   0.100000E-10
 Iteration #        165
 delta_qm =   0.276132E-06 delta_en =   0.336097E-09 tol =   0.100000E-10
 Iteration #        166
 delta_qm =   0.342072E-06 delta_en =   0.416357E-09 tol =   0.100000E-10
 Iteration #        167
 delta_qm =   0.389893E-06 delta_en =   0.474563E-09 tol =   0.100000E-10
 Iteration #        168
 delta_qm =   0.358435E-06 delta_en =   0.436273E-09 tol =   0.100000E-10
 Iteration #        169
 delta_qm =   0.275472E-06 delta_en =   0.335294E-09 tol =   0.100000E-10
 Iteration #        170
 delta_qm =   0.243934E-06 delta_en =   0.296908E-09 tol =   0.100000E-10
 Iteration #        171
 delta_qm =   0.301957E-06 delta_en =   0.367531E-09 tol =   0.100000E-10
 Iteration #        172
 delta_qm =   0.344615E-06 delta_en =   0.419452E-09 tol =   0.100000E-10
 Iteration #        173
 delta_qm =   0.317269E-06 delta_en =   0.386168E-09 tol =   0.100000E-10
 Iteration #        174
 delta_qm =   0.243987E-06 delta_en =   0.296972E-09 tol =   0.100000E-10
 Iteration #        175
 delta_qm =   0.215495E-06 delta_en =   0.262293E-09 tol =   0.100000E-10
 Iteration #        176
 delta_qm =   0.266545E-06 delta_en =   0.324428E-09 tol =   0.100000E-10
 Iteration #        177
 delta_qm =   0.304591E-06 delta_en =   0.370737E-09 tol =   0.100000E-10
 Iteration #        178
 delta_qm =   0.280829E-06 delta_en =   0.341814E-09 tol =   0.100000E-10
 Iteration #        179
 delta_qm =   0.216102E-06 delta_en =   0.263031E-09 tol =   0.100000E-10
 Iteration #        180
 delta_qm =   0.190376E-06 delta_en =   0.231718E-09 tol =   0.100000E-10
 Iteration #        181
 delta_qm =   0.235284E-06 delta_en =   0.286379E-09 tol =   0.100000E-10
 Iteration #        182
 delta_qm =   0.269213E-06 delta_en =   0.327676E-09 tol =   0.100000E-10
 Iteration #        183
 delta_qm =   0.248571E-06 delta_en =   0.302551E-09 tol =   0.100000E-10
 Iteration #        184
 delta_qm =   0.191404E-06 delta_en =   0.232970E-09 tol =   0.100000E-10
 Iteration #        185
 delta_qm =   0.168187E-06 delta_en =   0.204711E-09 tol =   0.100000E-10
 Iteration #        186
 delta_qm =   0.207689E-06 delta_en =   0.252791E-09 tol =   0.100000E-10
 Iteration #        187
 delta_qm =   0.237942E-06 delta_en =   0.289614E-09 tol =   0.100000E-10
 Iteration #        188
 delta_qm =   0.220017E-06 delta_en =   0.267796E-09 tol =   0.100000E-10
 Iteration #        189
 delta_qm =   0.169530E-06 delta_en =   0.206345E-09 tol =   0.100000E-10
 Iteration #        190
 delta_qm =   0.148588E-06 delta_en =   0.180856E-09 tol =   0.100000E-10
 Iteration #        191
 delta_qm =   0.183329E-06 delta_en =   0.223141E-09 tol =   0.100000E-10
 Iteration #        192
 delta_qm =   0.210302E-06 delta_en =   0.255971E-09 tol =   0.100000E-10
 Iteration #        193
 delta_qm =   0.194742E-06 delta_en =   0.237032E-09 tol =   0.100000E-10
 Iteration #        194
 delta_qm =   0.150156E-06 delta_en =   0.182764E-09 tol =   0.100000E-10
 Iteration #        195
 delta_qm =   0.131275E-06 delta_en =   0.159783E-09 tol =   0.100000E-10
 Iteration #        196
 delta_qm =   0.161825E-06 delta_en =   0.196968E-09 tol =   0.100000E-10
 Iteration #        197
 delta_qm =   0.185870E-06 delta_en =   0.226234E-09 tol =   0.100000E-10
 Iteration #        198
 delta_qm =   0.172368E-06 delta_en =   0.209800E-09 tol =   0.100000E-10
 Iteration #        199
 delta_qm =   0.132997E-06 delta_en =   0.161879E-09 tol =   0.100000E-10
 Iteration #        200
 delta_qm =   0.115982E-06 delta_en =   0.141169E-09 tol =   0.100000E-10

%%%% ELECTRONS %%%%%%%%%%%%%%%%%%%%%%%%%%%%%%%%%%%%%%%%%%%%%%%%%%%%%%%%%%%%%%%%%
 number of electrons        =         89
 total electronic charge    =     89.0000000
 number of spin components  =  1

%%%% BOUNDARY %%%%%%%%%%%%%%%%%%%%%%%%%%%%%%%%%%%%%%%%%%%%%%%%%%%%%%%%%%%%%%%%%%
 boundary mode              = electronic           
 boundary is built as a function of a smooth density
 function type              =  1 
 using the optimal SCCS function with parameters 
 rhomax                     =      0.0050000 
 rhomin                     =      0.0001000 

%%%% DIELECTRIC %%%%%%%%%%%%%%%%%%%%%%%%%%%%%%%%%%%%%%%%%%%%%%%%%%%%%%%%%%%%%%%%%
 dielectric build on homogeneous background
 environment bulk permitt.  =    100.0000000 
 dielectric flags
 need gradient              =  F 
 need factor depend. sqrt   =  F 
 need gradient of logarithm =  T 
