
     Program PWSCF v.6.1 (svn rev. 13369) starts on 29Sep2017 at 16:30:23 

     This program is part of the open-source Quantum ESPRESSO suite
     for quantum simulation of materials; please cite
         "P. Giannozzi et al., J. Phys.:Condens. Matter 21 395502 (2009);
          URL http://www.quantum-espresso.org", 
     in publications or presentations arising from this work. More details at
     http://www.quantum-espresso.org/quote

     Serial version
     Reading input from neutral.in

     Current dimensions of program PWSCF are:
     Max number of different atomic species (ntypx) = 10
     Max number of k-points (npk) =  40000
     Max angular momentum in pseudopotentials (lmaxx) =  3
     Message from routine  environ_checkin    :
      use some old legacy code for environ
               file C.pbe-rrkjus.UPF: wavefunction(s)  2S 2P renormalized
               file O.pbe-rrkjus.UPF: wavefunction(s)  2S renormalized

     gamma-point specific algorithms are used

     G-vector sticks info
     --------------------
     sticks:   dense  smooth     PW     G-vecs:    dense   smooth      PW
     Sum        2205    1099    269               330909   116965   14571



     bravais-lattice index     =            8
     lattice parameter (alat)  =      10.6881  a.u.
     unit-cell volume          =    4181.1215 (a.u.)^3
     number of atoms/cell      =           10
     number of atomic types    =            3
     number of electrons       =        89.00
     number of Kohn-Sham states=           80
     kinetic-energy cutoff     =      35.0000  Ry
     charge density cutoff     =     280.0000  Ry
     convergence threshold     =      5.0E-02
     mixing beta               =       0.7000
     number of iterations used =            8  plain     mixing
     Exchange-correlation      = PBE ( 1  4  3  4 0 0)


     Environ Module
     ==============

     Plese cite
         O. Andreussi, I. Dabo and N. Marzari, J. Chem. Phys. 136, 064102 (2012)         
     in publications or presentations arising from this work.

     compensation onset threshold      =               0.1000E+03 
     switching function adopted        =                     SCCS 
     density limit for vacuum region   =               0.5000E-02 
     density limit for bulk solvent    =               0.1000E-03 
     static permittivity               =                   100.00 
     epsilon calculation mode          =               electronic 

     Electrostatic Setup
     -------------------
     electrostatic problem to solve    = generalized              
     numerical solver adopted          = iterative                
     type of auxiliary density adopted = full                     
     type of core tool for poisson     = fft                      
     type of core tool for s(r) deriv  = fd                       
     type of numerical differentiator  =            central diff. 
     number of points in num. diff.    =                        2 



     celldm(1)=  10.688100  celldm(2)=   0.866025  celldm(3)=   3.954220
     celldm(4)=   0.000000  celldm(5)=   0.000000  celldm(6)=   0.000000

     crystal axes: (cart. coord. in units of alat)
               a(1) = (   1.000000   0.000000   0.000000 )  
               a(2) = (   0.000000   0.866025   0.000000 )  
               a(3) = (   0.000000   0.000000   3.954220 )  

     reciprocal axes: (cart. coord. in units 2 pi/alat)
               b(1) = (  1.000000  0.000000  0.000000 )  
               b(2) = (  0.000000  1.154701  0.000000 )  
               b(3) = (  0.000000  0.000000  0.252894 )  


     PseudoPot. # 1 for C  read from file:
     /Users/oliviero/PWSCF/espresso-6.1-Environ-1.0/Environ/tests/../..//pseudo/C.pbe-rrkjus.UPF
     MD5 check sum: 00fb224312de0c5b6853bd333518df6f
     Pseudo is Ultrasoft, Zval =  4.0
     Generated by new atomic code, or converted to UPF format
     Using radial grid of  627 points,  4 beta functions with: 
                l(1) =   0
                l(2) =   0
                l(3) =   1
                l(4) =   1
     Q(r) pseudized with 0 coefficients 


     PseudoPot. # 2 for O  read from file:
     /Users/oliviero/PWSCF/espresso-6.1-Environ-1.0/Environ/tests/../..//pseudo/O.pbe-rrkjus.UPF
     MD5 check sum: 390ba29e75625707450f3bd3f0eb6be9
     Pseudo is Ultrasoft, Zval =  6.0
     Generated by new atomic code, or converted to UPF format
     Using radial grid of 1269 points,  4 beta functions with: 
                l(1) =   0
                l(2) =   0
                l(3) =   1
                l(4) =   1
     Q(r) pseudized with 0 coefficients 


     PseudoPot. # 3 for Pt read from file:
     /Users/oliviero/PWSCF/espresso-6.1-Environ-1.0/Environ/tests/../..//pseudo/Pt.pbe-n-rrkjus.UPF
     MD5 check sum: df5be8f5ed4f66d4aed38ca70ec8d507
     Pseudo is Ultrasoft + core correction, Zval = 10.0
     Generated using "atomic" code by A. Dal Corso  v.5.0.2 svn rev. 9415
     Using radial grid of 1277 points,  6 beta functions with: 
                l(1) =   0
                l(2) =   0
                l(3) =   1
                l(4) =   1
                l(5) =   2
                l(6) =   2
     Q(r) pseudized with 0 coefficients 


     atomic species   valence    mass     pseudopotential
        C              4.00     1.00000     C ( 1.00)
        O              6.00     1.00000     O ( 1.00)
        Pt            10.00     1.00000     Pt( 1.00)

     No symmetry found



   Cartesian axes

     site n.     atom                  positions (alat units)
         1           C   tau(   1) = (   0.4991611   0.4347567   1.2070461  )
         2           O   tau(   2) = (   0.4991542   0.4322212   1.4109013  )
         3           Pt  tau(   3) = (   0.7542339   0.0091745   0.8413229  )
         4           Pt  tau(   4) = (   0.2441023   0.0091745   0.8413226  )
         5           Pt  tau(   5) = (   0.0000034   0.4416918   0.8391348  )
         6           Pt  tau(   6) = (   0.4991682   0.4417635   0.8776299  )
         7           Pt  tau(   7) = (   0.0000038   0.7300598   0.4308181  )
         8           Pt  tau(   8) = (   0.4991683   0.7202168   0.4447460  )
         9           Pt  tau(   9) = (   0.2524172   0.2949237   0.4386572  )
        10           Pt  tau(  10) = (   0.7459196   0.2949237   0.4386575  )

     number of k points=     1  Marzari-Vanderbilt smearing, width (Ry)=  0.0300
                       cart. coord. in units 2pi/alat
        k(    1) = (   0.0000000   0.0000000   0.0000000), wk =   2.0000000

     Dense  grid:   165455 G-vectors     FFT dimensions: (  60,  50, 225)

     Smooth grid:    58483 G-vectors     FFT dimensions: (  45,  36, 160)

     Estimated max dynamical RAM per process >     216.67MB

     Initial potential from superposition of free atoms
     Check: negative starting charge=   -0.001782

     starting charge   89.99859, renormalised to   89.00000

     negative rho (up, down):  1.762E-03 0.000E+00
     Starting wfc are   80 randomized atomic wfcs

     total cpu time spent up to now is       19.4 secs

     Self-consistent Calculation

     iteration #  1     ecut=    35.00 Ry     beta=0.70
     Davidson diagonalization with overlap
     ethr =  1.00E-02,  avg # of iterations =  5.0

     negative rho (up, down):  1.526E-03 0.000E+00

     add environment contribution to local potential
     polarization accuracy = 9.0E-08, # of iterations =  53

     total cpu time spent up to now is       55.3 secs

     total energy              =    -622.68843633 Ry
     Harris-Foulkes estimate   =    -624.21108732 Ry
     estimated scf accuracy    <       1.86594048 Ry
     electrostatic embedding   =       0.03381190 Ry
     correction to one-el term =       0.00000000 Ry

     iteration #  2     ecut=    35.00 Ry     beta=0.70
     Davidson diagonalization with overlap
     WARNING:     3 eigenvalues not converged in regterg
     c_bands:  3 eigenvalues not converged
     ethr =  2.10E-03,  avg # of iterations = 20.0

     negative rho (up, down):  2.044E-02 0.000E+00

     add environment contribution to local potential
     polarization accuracy = 9.2E-08, # of iterations =  58

     total cpu time spent up to now is       94.1 secs

     total energy              =    -630.98421230 Ry
     Harris-Foulkes estimate   =    -619.59120492 Ry
     estimated scf accuracy    <      39.63557900 Ry
     electrostatic embedding   =       0.21468595 Ry
     correction to one-el term =     -19.29572084 Ry

     iteration #  3     ecut=    35.00 Ry     beta=0.70
     Davidson diagonalization with overlap
     WARNING:     2 eigenvalues not converged in regterg
     c_bands:  2 eigenvalues not converged
     ethr =  2.10E-03,  avg # of iterations = 20.0

     negative rho (up, down):  7.172E-03 0.000E+00

     add environment contribution to local potential
     polarization accuracy = 8.1E-08, # of iterations =  12

     total cpu time spent up to now is      108.3 secs

     total energy              =    -630.45259844 Ry
     Harris-Foulkes estimate   =    -614.74746706 Ry
     estimated scf accuracy    <       2.38137162 Ry
     electrostatic embedding   =       0.20599283 Ry
     correction to one-el term =     -16.44722875 Ry

     iteration #  4     ecut=    35.00 Ry     beta=0.70
     Davidson diagonalization with overlap
     ethr =  2.10E-03,  avg # of iterations = 11.0

     negative rho (up, down):  1.002E-02 0.000E+00

     add environment contribution to local potential
     polarization accuracy = 9.1E-08, # of iterations =  15

     total cpu time spent up to now is      122.8 secs

     total energy              =    -630.44496240 Ry
     Harris-Foulkes estimate   =    -613.71589723 Ry
     estimated scf accuracy    <       1.37651322 Ry
     electrostatic embedding   =       0.19044198 Ry
     correction to one-el term =     -17.26359008 Ry

     iteration #  5     ecut=    35.00 Ry     beta=0.70
     Davidson diagonalization with overlap
     ethr =  1.55E-03,  avg # of iterations =  6.0

     negative rho (up, down):  1.047E-02 0.000E+00

     add environment contribution to local potential
     polarization accuracy = 8.0E-08, # of iterations =   8

     total cpu time spent up to now is      133.6 secs

     total energy              =    -630.90123383 Ry
     Harris-Foulkes estimate   =    -613.30036449 Ry
     estimated scf accuracy    <       0.71019128 Ry
     electrostatic embedding   =       0.19741571 Ry
     correction to one-el term =     -17.87750444 Ry

     iteration #  6     ecut=    35.00 Ry     beta=0.70
     Davidson diagonalization with overlap
     WARNING:     2 eigenvalues not converged in regterg
     c_bands:  2 eigenvalues not converged
     ethr =  7.98E-04,  avg # of iterations = 20.0

     negative rho (up, down):  7.198E-03 0.000E+00

     add environment contribution to local potential
     polarization accuracy = 8.5E-08, # of iterations =  11

     total cpu time spent up to now is      147.2 secs

     total energy              =    -628.75188104 Ry
     Harris-Foulkes estimate   =    -613.40682411 Ry
     estimated scf accuracy    <       0.15581703 Ry
     electrostatic embedding   =       0.18430096 Ry
     correction to one-el term =     -15.57373940 Ry

     iteration #  7     ecut=    35.00 Ry     beta=0.70
     Davidson diagonalization with overlap
     WARNING:     1 eigenvalues not converged in regterg
     c_bands:  1 eigenvalues not converged
     ethr =  1.75E-04,  avg # of iterations = 20.0

     negative rho (up, down):  7.300E-03 0.000E+00

     add environment contribution to local potential
     polarization accuracy = 9.8E-08, # of iterations =  14

     total cpu time spent up to now is      163.4 secs

     total energy              =    -626.52969704 Ry
     Harris-Foulkes estimate   =    -612.42481826 Ry
     estimated scf accuracy    <       0.31823773 Ry
     electrostatic embedding   =       0.17092208 Ry
     correction to one-el term =     -14.32482277 Ry

     iteration #  8     ecut=    35.00 Ry     beta=0.70
     Davidson diagonalization with overlap
     WARNING:     6 eigenvalues not converged in regterg
     WARNING:     1 eigenvalues not converged in regterg
     c_bands:  1 eigenvalues not converged
     ethr =  1.75E-04,  avg # of iterations = 40.0

     negative rho (up, down):  5.372E-03 0.000E+00

     add environment contribution to local potential
     polarization accuracy = 9.8E-08, # of iterations =  14

     total cpu time spent up to now is      181.2 secs

     total energy              =    -624.83504049 Ry
     Harris-Foulkes estimate   =    -611.43915481 Ry
     estimated scf accuracy    <       0.09849910 Ry
     electrostatic embedding   =       0.15652773 Ry
     correction to one-el term =     -13.57608215 Ry

     iteration #  9     ecut=    35.00 Ry     beta=0.70
     Davidson diagonalization with overlap
     WARNING:     1 eigenvalues not converged in regterg
     c_bands:  1 eigenvalues not converged
     ethr =  1.11E-04,  avg # of iterations = 20.0

     negative rho (up, down):  6.527E-03 0.000E+00

     add environment contribution to local potential
     polarization accuracy = 9.8E-08, # of iterations =  10

     total cpu time spent up to now is      194.8 secs

     total energy              =    -625.27874380 Ry
     Harris-Foulkes estimate   =    -610.28162179 Ry
     estimated scf accuracy    <       0.10775881 Ry
     electrostatic embedding   =       0.14368065 Ry
     correction to one-el term =     -15.14608087 Ry

     iteration # 10     ecut=    35.00 Ry     beta=0.70
     Davidson diagonalization with overlap
     WARNING:     3 eigenvalues not converged in regterg
     c_bands:  3 eigenvalues not converged
     ethr =  1.11E-04,  avg # of iterations = 20.0

     negative rho (up, down):  5.864E-03 0.000E+00

     add environment contribution to local potential
     polarization accuracy = 8.1E-08, # of iterations =  10

     total cpu time spent up to now is      207.3 secs

     total energy              =    -625.88740039 Ry
     Harris-Foulkes estimate   =    -609.71845619 Ry
     estimated scf accuracy    <       0.05440351 Ry
     electrostatic embedding   =       0.13567159 Ry
     correction to one-el term =     -16.30818819 Ry

     iteration # 11     ecut=    35.00 Ry     beta=0.70
     Davidson diagonalization with overlap
     ethr =  6.11E-05,  avg # of iterations =  6.0

     negative rho (up, down):  2.680E-03 0.000E+00

     total cpu time spent up to now is      212.9 secs

     End of self-consistent calculation

          k = 0.0000 0.0000 0.0000 (  7286 PWs)   bands (ev):

   -24.8568 -11.1884  -9.4655  -8.4161  -8.0556  -7.5936  -7.5689  -7.2580
    -7.0903  -6.1731  -6.1123  -6.0000  -5.7138  -5.6943  -5.6225  -5.5427
    -4.8511  -4.7864  -4.7115  -4.5577  -4.5210  -4.4894  -4.4080  -4.3854
    -4.2661  -4.2530  -4.0909  -4.0660  -3.9935  -3.6722  -3.5868  -2.8777
    -2.6905  -2.3666  -2.2474  -2.1601  -1.9775  -1.8854  -1.8258  -1.6479
    -1.4906  -1.4422  -1.2503  -1.1945  -1.1509  -0.9910  -0.1451   0.3216
     0.5222   0.8062   1.3022   2.1275   2.2070   2.6604   2.7211   2.8595
     3.4314   3.5313   3.9756   4.6489   5.0029   5.7622   5.9573   6.1676
     6.7122   6.8053   7.2717   7.2776   7.4642   7.4880   7.7216   7.7793
     8.2498   8.4275   8.5891   8.6153   8.9061   9.0305   9.0930   9.2429

     the Fermi energy is    -1.0592 ev

!    total energy              =    -626.53037070 Ry
     Harris-Foulkes estimate   =    -609.15713742 Ry
     estimated scf accuracy    <       0.02862379 Ry

     The total energy is the sum of the following terms:

     one-electron contribution =   -3935.71693033 Ry
     hartree contribution      =    2016.98587198 Ry
     xc contribution           =    -263.61462913 Ry
     ewald contribution        =    1573.20467954 Ry
     smearing contrib. (-TS)   =       0.00831810 Ry
     electrostatic embedding   =       0.13026658 Ry
     correction to one-el term =     -17.52794743 Ry

     convergence has been achieved in  11 iterations

     negative rho (up, down):  2.680E-03 0.000E+00

     Forces acting on atoms (cartesian axes, Ry/au):

     atom    1 type  1   force =    -0.13209745   -0.09135300    0.07246190
     atom    2 type  2   force =    -0.13224931   -0.08137791   -0.13989054
     atom    3 type  3   force =     0.18547172    0.07653227   -0.06550222
     atom    4 type  3   force =    -0.15390604    0.07097280   -0.02753762
     atom    5 type  3   force =     0.24902144   -0.05183064   -0.10982647
     atom    6 type  3   force =    -0.11985592   -0.06437787    0.07505751
     atom    7 type  3   force =     0.25180321    0.19363345    0.09696908
     atom    8 type  3   force =    -0.13157155    0.15494901    0.04253560
     atom    9 type  3   force =    -0.14510739   -0.09832076    0.02005547
     atom   10 type  3   force =     0.12849128   -0.10882735    0.03567728

     Total force =     0.681061     Total SCF correction =     0.599330
     SCF correction compared to forces is large: reduce conv_thr to get better values

     Writing output data file pwscf.save

     init_run     :     18.16s CPU     18.93s WALL (       1 calls)
     electrons    :    197.60s CPU    193.67s WALL (       1 calls)
     forces       :      7.61s CPU      7.75s WALL (       1 calls)

     Called by init_run:
     wfcinit      :      0.69s CPU      0.62s WALL (       1 calls)
     potinit      :      3.26s CPU      3.37s WALL (       1 calls)

     Called by electrons:
     c_bands      :     42.92s CPU     30.68s WALL (      11 calls)
     sum_band     :     19.48s CPU     19.08s WALL (      11 calls)
     v_of_rho     :      6.88s CPU      7.40s WALL (      12 calls)
     newd         :     10.83s CPU     13.56s WALL (      12 calls)
     mix_rho      :      0.66s CPU      0.86s WALL (      11 calls)

     Called by c_bands:
     init_us_2    :      0.22s CPU      0.26s WALL (      23 calls)
     regterg      :     41.54s CPU     29.28s WALL (      12 calls)

     Called by sum_band:
     sum_band:bec :      0.00s CPU      0.00s WALL (      11 calls)
     addusdens    :     15.46s CPU     15.07s WALL (      11 calls)

     Called by *egterg:
     h_psi        :     23.53s CPU     20.45s WALL (     201 calls)
     s_psi        :      3.16s CPU      0.90s WALL (     201 calls)
     g_psi        :      0.26s CPU      0.26s WALL (     188 calls)
     rdiaghg      :      2.96s CPU      2.82s WALL (     200 calls)

     Called by h_psi:
     h_psi:pot    :     23.34s CPU     20.26s WALL (     201 calls)
     h_psi:calbec :      1.57s CPU      0.86s WALL (     201 calls)
     vloc_psi     :     18.23s CPU     18.40s WALL (     201 calls)
     add_vuspsi   :      3.53s CPU      0.99s WALL (     201 calls)

     General routines
     calbec       :      1.96s CPU      1.06s WALL (     216 calls)
     fft          :     22.39s CPU     22.60s WALL (    1144 calls)
     ffts         :      0.16s CPU      0.16s WALL (      23 calls)
     fftw         :     16.38s CPU     16.53s WALL (    3868 calls)
     interpolate  :      0.76s CPU      0.89s WALL (      23 calls)
     davcio       :      0.03s CPU      0.03s WALL (       1 calls)


     Environ routines
     calc_eelect  :      0.02s CPU      0.02s WALL (      22 calls)
     calc_velect  :    110.42s CPU    115.43s WALL (      20 calls)
     dielectric   :      0.63s CPU      0.70s WALL (      12 calls)
     calc_felect  :      0.65s CPU      0.66s WALL (       1 calls)

     PWSCF        :  3m43.85s CPU     3m41.09s WALL


   This run was terminated on:  16:34: 4  29Sep2017            

=------------------------------------------------------------------------------=
   JOB DONE.
=------------------------------------------------------------------------------=

%%%% IONS %%%%%%%%%%%%%%%%%%%%%%%%%%%%%%%%%%%%%%%%%%%%%%%%%%%%%%%%%%%%%%%%%%%%%%
 number of ions             =         10
 ionic center of charge     =      0.3882415     0.3750182     0.7201831
 total ionic charge         =    -90.0000000
 ionic dipole               =      0.0000000     0.0000000     0.0000000
 ionic quadrupole (pc)      =   -730.5101255  -614.6110457  -876.7220256
 ionic quadrupole (gauss)   =   -741.7601255  -625.8610457  -887.9720256
 ion   1 type =  1 coordinates =      5.3350841     4.6467234    12.9010299
 ion   2 type =  2 coordinates =      5.3350096     4.6196233    15.0798543
 ion   3 type =  3 coordinates =      8.0613271     0.0980580     8.9921429
 ion   4 type =  3 coordinates =      2.6089894     0.0980583     8.9921406
 ion   5 type =  3 coordinates =      0.0000366     4.7208463     8.9687569
 ion   6 type =  3 coordinates =      5.3351596     4.7216127     9.3801964
 ion   7 type =  3 coordinates =      0.0000411     7.8029520     4.6046265
 ion   8 type =  3 coordinates =      5.3351612     7.6977491     4.7534894
 ion   9 type =  3 coordinates =      2.6978606     3.1521739     4.6884123
 ion  10 type =  3 coordinates =      7.9724637     3.1521745     4.6884152

%%%% SYSTEM %%%%%%%%%%%%%%%%%%%%%%%%%%%%%%%%%%%%%%%%%%%%%%%%%%%%%%%%%%%%%%%%%%%%
 system is built from all present ionic types
 system defined dimension   =  0 
 system defined axis        =  3 
 system center              =      0.3882415     0.3750182     0.7201831 
 system width               =      1.5145225 

%%%% ELECTRONS %%%%%%%%%%%%%%%%%%%%%%%%%%%%%%%%%%%%%%%%%%%%%%%%%%%%%%%%%%%%%%%%%
 number of electrons        =         89
 total electronic charge    =     89.0000000
 number of spin components  =  1

%%%% BOUNDARY %%%%%%%%%%%%%%%%%%%%%%%%%%%%%%%%%%%%%%%%%%%%%%%%%%%%%%%%%%%%%%%%%%
 boundary mode              = electronic           
 boundary is built as a function of a smooth density
 function type              =  1 
 using the optimal SCCS function with parameters 
 rhomax                     =      0.0050000 
 rhomin                     =      0.0001000 

%%%% DIELECTRIC %%%%%%%%%%%%%%%%%%%%%%%%%%%%%%%%%%%%%%%%%%%%%%%%%%%%%%%%%%%%%%%%%
 dielectric build on homogeneous background
 environment bulk permitt.  =    100.0000000 
 dielectric flags
 need gradient              =  F 
 need factor depend. sqrt   =  F 
 need gradient of logarithm =  T 

%%%% COMPUTE ELECTROSTATIC POTENTIAL %%%%%%%%%%%%%%%%%%%%%%%%%%%%%%%%%%%%%%%%%%%
 Starting from polarization: rhoiter =      0.000000
 Iteration #          1
 delta_qm =   0.399846E-02 delta_en =   0.486677E-05 tol =   0.100000E-06
 Iteration #          2
 delta_qm =   0.296574E-02 delta_en =   0.360978E-05 tol =   0.100000E-06
 Iteration #          3
 delta_qm =   0.218089E-02 delta_en =   0.265449E-05 tol =   0.100000E-06
 Iteration #          4
 delta_qm =   0.189457E-02 delta_en =   0.230600E-05 tol =   0.100000E-06
 Iteration #          5
 delta_qm =   0.147220E-02 delta_en =   0.179191E-05 tol =   0.100000E-06
 Iteration #          6
 delta_qm =   0.112035E-02 delta_en =   0.136365E-05 tol =   0.100000E-06
 Iteration #          7
 delta_qm =   0.120861E-02 delta_en =   0.147107E-05 tol =   0.100000E-06
 Iteration #          8
 delta_qm =   0.933274E-03 delta_en =   0.113594E-05 tol =   0.100000E-06
 Iteration #          9
 delta_qm =   0.673959E-03 delta_en =   0.820317E-06 tol =   0.100000E-06
 Iteration #         10
 delta_qm =   0.570279E-03 delta_en =   0.694121E-06 tol =   0.100000E-06
 Iteration #         11
 delta_qm =   0.527979E-03 delta_en =   0.642635E-06 tol =   0.100000E-06
 Iteration #         12
 delta_qm =   0.527556E-03 delta_en =   0.642120E-06 tol =   0.100000E-06
 Iteration #         13
 delta_qm =   0.475416E-03 delta_en =   0.578657E-06 tol =   0.100000E-06
 Iteration #         14
 delta_qm =   0.365546E-03 delta_en =   0.444929E-06 tol =   0.100000E-06
 Iteration #         15
 delta_qm =   0.312237E-03 delta_en =   0.380043E-06 tol =   0.100000E-06
 Iteration #         16
 delta_qm =   0.379347E-03 delta_en =   0.461726E-06 tol =   0.100000E-06
 Iteration #         17
 delta_qm =   0.431394E-03 delta_en =   0.525077E-06 tol =   0.100000E-06
 Iteration #         18
 delta_qm =   0.390243E-03 delta_en =   0.474989E-06 tol =   0.100000E-06
 Iteration #         19
 delta_qm =   0.296403E-03 delta_en =   0.360771E-06 tol =   0.100000E-06
 Iteration #         20
 delta_qm =   0.274670E-03 delta_en =   0.334318E-06 tol =   0.100000E-06
 Iteration #         21
 delta_qm =   0.336486E-03 delta_en =   0.409557E-06 tol =   0.100000E-06
 Iteration #         22
 delta_qm =   0.361476E-03 delta_en =   0.439975E-06 tol =   0.100000E-06
 Iteration #         23
 delta_qm =   0.310484E-03 delta_en =   0.377909E-06 tol =   0.100000E-06
 Iteration #         24
 delta_qm =   0.234972E-03 delta_en =   0.285999E-06 tol =   0.100000E-06
 Iteration #         25
 delta_qm =   0.235231E-03 delta_en =   0.286314E-06 tol =   0.100000E-06
 Iteration #         26
 delta_qm =   0.286444E-03 delta_en =   0.348649E-06 tol =   0.100000E-06
 Iteration #         27
 delta_qm =   0.295134E-03 delta_en =   0.359226E-06 tol =   0.100000E-06
 Iteration #         28
 delta_qm =   0.244036E-03 delta_en =   0.297032E-06 tol =   0.100000E-06
 Iteration #         29
 delta_qm =   0.187668E-03 delta_en =   0.228422E-06 tol =   0.100000E-06
 Iteration #         30
 delta_qm =   0.202013E-03 delta_en =   0.245883E-06 tol =   0.100000E-06
 Iteration #         31
 delta_qm =   0.242208E-03 delta_en =   0.294806E-06 tol =   0.100000E-06
 Iteration #         32
 delta_qm =   0.239461E-03 delta_en =   0.291462E-06 tol =   0.100000E-06
 Iteration #         33
 delta_qm =   0.191360E-03 delta_en =   0.232916E-06 tol =   0.100000E-06
 Iteration #         34
 delta_qm =   0.152429E-03 delta_en =   0.185530E-06 tol =   0.100000E-06
 Iteration #         35
 delta_qm =   0.174164E-03 delta_en =   0.211986E-06 tol =   0.100000E-06
 Iteration #         36
 delta_qm =   0.203507E-03 delta_en =   0.247701E-06 tol =   0.100000E-06
 Iteration #         37
 delta_qm =   0.192901E-03 delta_en =   0.234792E-06 tol =   0.100000E-06
 Iteration #         38
 delta_qm =   0.149829E-03 delta_en =   0.182366E-06 tol =   0.100000E-06
 Iteration #         39
 delta_qm =   0.125985E-03 delta_en =   0.153344E-06 tol =   0.100000E-06
 Iteration #         40
 delta_qm =   0.150061E-03 delta_en =   0.182648E-06 tol =   0.100000E-06
 Iteration #         41
 delta_qm =   0.169693E-03 delta_en =   0.206544E-06 tol =   0.100000E-06
 Iteration #         42
 delta_qm =   0.154233E-03 delta_en =   0.187726E-06 tol =   0.100000E-06
 Iteration #         43
 delta_qm =   0.117463E-03 delta_en =   0.142971E-06 tol =   0.100000E-06
 Iteration #         44
 delta_qm =   0.105826E-03 delta_en =   0.128807E-06 tol =   0.100000E-06
 Iteration #         45
 delta_qm =   0.128838E-03 delta_en =   0.156817E-06 tol =   0.100000E-06
 Iteration #         46
 delta_qm =   0.140380E-03 delta_en =   0.170865E-06 tol =   0.100000E-06
 Iteration #         47
 delta_qm =   0.122458E-03 delta_en =   0.149052E-06 tol =   0.100000E-06
 Iteration #         48
 delta_qm =   0.925867E-04 delta_en =   0.112693E-06 tol =   0.100000E-06
 Iteration #         49
 delta_qm =   0.900546E-04 delta_en =   0.109611E-06 tol =   0.100000E-06
 Iteration #         50
 delta_qm =   0.110038E-03 delta_en =   0.133934E-06 tol =   0.100000E-06
 Iteration #         51
 delta_qm =   0.115210E-03 delta_en =   0.140229E-06 tol =   0.100000E-06
 Iteration #         52
 delta_qm =   0.966383E-04 delta_en =   0.117624E-06 tol =   0.100000E-06
 Iteration #         53
 delta_qm =   0.737107E-04 delta_en =   0.897178E-07 tol =   0.100000E-06
 Charges are converged, exit!

%%%% ELECTRONS %%%%%%%%%%%%%%%%%%%%%%%%%%%%%%%%%%%%%%%%%%%%%%%%%%%%%%%%%%%%%%%%%
 number of electrons        =         89
 total electronic charge    =     89.0000000
 number of spin components  =  1

%%%% BOUNDARY %%%%%%%%%%%%%%%%%%%%%%%%%%%%%%%%%%%%%%%%%%%%%%%%%%%%%%%%%%%%%%%%%%
 boundary mode              = electronic           
 boundary is built as a function of a smooth density
 function type              =  1 
 using the optimal SCCS function with parameters 
 rhomax                     =      0.0050000 
 rhomin                     =      0.0001000 

%%%% DIELECTRIC %%%%%%%%%%%%%%%%%%%%%%%%%%%%%%%%%%%%%%%%%%%%%%%%%%%%%%%%%%%%%%%%%
 dielectric build on homogeneous background
 environment bulk permitt.  =    100.0000000 
 dielectric flags
 need gradient              =  F 
 need factor depend. sqrt   =  F 
 need gradient of logarithm =  T 

%%%% COMPUTE ELECTROSTATIC POTENTIAL %%%%%%%%%%%%%%%%%%%%%%%%%%%%%%%%%%%%%%%%%%%
 Starting from polarization: rhoiter =      1.227428
 Iteration #          1
 delta_qm =   0.753476E-03 delta_en =   0.917101E-06 tol =   0.100000E-06
 Iteration #          2
 delta_qm =   0.815673E-03 delta_en =   0.992806E-06 tol =   0.100000E-06
 Iteration #          3
 delta_qm =   0.844836E-03 delta_en =   0.102830E-05 tol =   0.100000E-06
 Iteration #          4
 delta_qm =   0.715554E-03 delta_en =   0.870945E-06 tol =   0.100000E-06
 Iteration #          5
 delta_qm =   0.556389E-03 delta_en =   0.677216E-06 tol =   0.100000E-06
 Iteration #          6
 delta_qm =   0.581799E-03 delta_en =   0.708143E-06 tol =   0.100000E-06
 Iteration #          7
 delta_qm =   0.697042E-03 delta_en =   0.848413E-06 tol =   0.100000E-06
 Iteration #          8
 delta_qm =   0.700256E-03 delta_en =   0.852324E-06 tol =   0.100000E-06
 Iteration #          9
 delta_qm =   0.572071E-03 delta_en =   0.696303E-06 tol =   0.100000E-06
 Iteration #         10
 delta_qm =   0.457163E-03 delta_en =   0.556441E-06 tol =   0.100000E-06
 Iteration #         11
 delta_qm =   0.505729E-03 delta_en =   0.615554E-06 tol =   0.100000E-06
 Iteration #         12
 delta_qm =   0.588116E-03 delta_en =   0.715832E-06 tol =   0.100000E-06
 Iteration #         13
 delta_qm =   0.565338E-03 delta_en =   0.688108E-06 tol =   0.100000E-06
 Iteration #         14
 delta_qm =   0.449221E-03 delta_en =   0.546774E-06 tol =   0.100000E-06
 Iteration #         15
 delta_qm =   0.374768E-03 delta_en =   0.456153E-06 tol =   0.100000E-06
 Iteration #         16
 delta_qm =   0.433074E-03 delta_en =   0.527121E-06 tol =   0.100000E-06
 Iteration #         17
 delta_qm =   0.491807E-03 delta_en =   0.598608E-06 tol =   0.100000E-06
 Iteration #         18
 delta_qm =   0.456444E-03 delta_en =   0.555566E-06 tol =   0.100000E-06
 Iteration #         19
 delta_qm =   0.356018E-03 delta_en =   0.433332E-06 tol =   0.100000E-06
 Iteration #         20
 delta_qm =   0.313681E-03 delta_en =   0.381801E-06 tol =   0.100000E-06
 Iteration #         21
 delta_qm =   0.372685E-03 delta_en =   0.453618E-06 tol =   0.100000E-06
 Iteration #         22
 delta_qm =   0.410726E-03 delta_en =   0.499920E-06 tol =   0.100000E-06
 Iteration #         23
 delta_qm =   0.367557E-03 delta_en =   0.447377E-06 tol =   0.100000E-06
 Iteration #         24
 delta_qm =   0.283639E-03 delta_en =   0.345234E-06 tol =   0.100000E-06
 Iteration #         25
 delta_qm =   0.266131E-03 delta_en =   0.323925E-06 tol =   0.100000E-06
 Iteration #         26
 delta_qm =   0.319838E-03 delta_en =   0.389294E-06 tol =   0.100000E-06
 Iteration #         27
 delta_qm =   0.340729E-03 delta_en =   0.414722E-06 tol =   0.100000E-06
 Iteration #         28
 delta_qm =   0.294295E-03 delta_en =   0.358205E-06 tol =   0.100000E-06
 Iteration #         29
 delta_qm =   0.227293E-03 delta_en =   0.276652E-06 tol =   0.100000E-06
 Iteration #         30
 delta_qm =   0.227688E-03 delta_en =   0.277133E-06 tol =   0.100000E-06
 Iteration #         31
 delta_qm =   0.273117E-03 delta_en =   0.332428E-06 tol =   0.100000E-06
 Iteration #         32
 delta_qm =   0.280744E-03 delta_en =   0.341711E-06 tol =   0.100000E-06
 Iteration #         33
 delta_qm =   0.234566E-03 delta_en =   0.285505E-06 tol =   0.100000E-06
 Iteration #         34
 delta_qm =   0.183864E-03 delta_en =   0.223792E-06 tol =   0.100000E-06
 Iteration #         35
 delta_qm =   0.195873E-03 delta_en =   0.238409E-06 tol =   0.100000E-06
 Iteration #         36
 delta_qm =   0.231952E-03 delta_en =   0.282323E-06 tol =   0.100000E-06
 Iteration #         37
 delta_qm =   0.229812E-03 delta_en =   0.279719E-06 tol =   0.100000E-06
 Iteration #         38
 delta_qm =   0.186371E-03 delta_en =   0.226844E-06 tol =   0.100000E-06
 Iteration #         39
 delta_qm =   0.150548E-03 delta_en =   0.183241E-06 tol =   0.100000E-06
 Iteration #         40
 delta_qm =   0.168920E-03 delta_en =   0.205603E-06 tol =   0.100000E-06
 Iteration #         41
 delta_qm =   0.195823E-03 delta_en =   0.238348E-06 tol =   0.100000E-06
 Iteration #         42
 delta_qm =   0.186920E-03 delta_en =   0.227512E-06 tol =   0.100000E-06
 Iteration #         43
 delta_qm =   0.147872E-03 delta_en =   0.179984E-06 tol =   0.100000E-06
 Iteration #         44
 delta_qm =   0.124933E-03 delta_en =   0.152063E-06 tol =   0.100000E-06
 Iteration #         45
 delta_qm =   0.145646E-03 delta_en =   0.177274E-06 tol =   0.100000E-06
 Iteration #         46
 delta_qm =   0.164285E-03 delta_en =   0.199961E-06 tol =   0.100000E-06
 Iteration #         47
 delta_qm =   0.151100E-03 delta_en =   0.183913E-06 tol =   0.100000E-06
 Iteration #         48
 delta_qm =   0.117436E-03 delta_en =   0.142939E-06 tol =   0.100000E-06
 Iteration #         49
 delta_qm =   0.105033E-03 delta_en =   0.127842E-06 tol =   0.100000E-06
 Iteration #         50
 delta_qm =   0.125291E-03 delta_en =   0.152499E-06 tol =   0.100000E-06
 Iteration #         51
 delta_qm =   0.136935E-03 delta_en =   0.166673E-06 tol =   0.100000E-06
 Iteration #         52
 delta_qm =   0.121444E-03 delta_en =   0.147817E-06 tol =   0.100000E-06
 Iteration #         53
 delta_qm =   0.936251E-04 delta_en =   0.113957E-06 tol =   0.100000E-06
 Iteration #         54
 delta_qm =   0.892832E-04 delta_en =   0.108672E-06 tol =   0.100000E-06
 Iteration #         55
 delta_qm =   0.107371E-03 delta_en =   0.130688E-06 tol =   0.100000E-06
 Iteration #         56
 delta_qm =   0.113391E-03 delta_en =   0.138015E-06 tol =   0.100000E-06
 Iteration #         57
 delta_qm =   0.971118E-04 delta_en =   0.118201E-06 tol =   0.100000E-06
 Iteration #         58
 delta_qm =   0.751751E-04 delta_en =   0.915002E-07 tol =   0.100000E-06
 Charges are converged, exit!

%%%% ELECTRONS %%%%%%%%%%%%%%%%%%%%%%%%%%%%%%%%%%%%%%%%%%%%%%%%%%%%%%%%%%%%%%%%%
 number of electrons        =         89
 total electronic charge    =     89.0000000
 number of spin components  =  1

%%%% BOUNDARY %%%%%%%%%%%%%%%%%%%%%%%%%%%%%%%%%%%%%%%%%%%%%%%%%%%%%%%%%%%%%%%%%%
 boundary mode              = electronic           
 boundary is built as a function of a smooth density
 function type              =  1 
 using the optimal SCCS function with parameters 
 rhomax                     =      0.0050000 
 rhomin                     =      0.0001000 

%%%% DIELECTRIC %%%%%%%%%%%%%%%%%%%%%%%%%%%%%%%%%%%%%%%%%%%%%%%%%%%%%%%%%%%%%%%%%
 dielectric build on homogeneous background
 environment bulk permitt.  =    100.0000000 
 dielectric flags
 need gradient              =  F 
 need factor depend. sqrt   =  F 
 need gradient of logarithm =  T 

%%%% COMPUTE ELECTROSTATIC POTENTIAL %%%%%%%%%%%%%%%%%%%%%%%%%%%%%%%%%%%%%%%%%%%
 Starting from polarization: rhoiter =      1.218391
 Iteration #          1
 delta_qm =   0.819182E-03 delta_en =   0.997076E-06 tol =   0.100000E-06
 Iteration #          2
 delta_qm =   0.710244E-03 delta_en =   0.864482E-06 tol =   0.100000E-06
 Iteration #          3
 delta_qm =   0.541173E-03 delta_en =   0.658695E-06 tol =   0.100000E-06
 Iteration #          4
 delta_qm =   0.459133E-03 delta_en =   0.558838E-06 tol =   0.100000E-06
 Iteration #          5
 delta_qm =   0.326398E-03 delta_en =   0.397279E-06 tol =   0.100000E-06
 Iteration #          6
 delta_qm =   0.300461E-03 delta_en =   0.365710E-06 tol =   0.100000E-06
 Iteration #          7
 delta_qm =   0.219473E-03 delta_en =   0.267134E-06 tol =   0.100000E-06
 Iteration #          8
 delta_qm =   0.162904E-03 delta_en =   0.198281E-06 tol =   0.100000E-06
 Iteration #          9
 delta_qm =   0.146364E-03 delta_en =   0.178149E-06 tol =   0.100000E-06
 Iteration #         10
 delta_qm =   0.110943E-03 delta_en =   0.135036E-06 tol =   0.100000E-06
 Iteration #         11
 delta_qm =   0.853767E-04 delta_en =   0.103917E-06 tol =   0.100000E-06
 Iteration #         12
 delta_qm =   0.663295E-04 delta_en =   0.807337E-07 tol =   0.100000E-06
 Charges are converged, exit!

%%%% ELECTRONS %%%%%%%%%%%%%%%%%%%%%%%%%%%%%%%%%%%%%%%%%%%%%%%%%%%%%%%%%%%%%%%%%
 number of electrons        =         89
 total electronic charge    =     89.0000000
 number of spin components  =  1

%%%% BOUNDARY %%%%%%%%%%%%%%%%%%%%%%%%%%%%%%%%%%%%%%%%%%%%%%%%%%%%%%%%%%%%%%%%%%
 boundary mode              = electronic           
 boundary is built as a function of a smooth density
 function type              =  1 
 using the optimal SCCS function with parameters 
 rhomax                     =      0.0050000 
 rhomin                     =      0.0001000 

%%%% DIELECTRIC %%%%%%%%%%%%%%%%%%%%%%%%%%%%%%%%%%%%%%%%%%%%%%%%%%%%%%%%%%%%%%%%%
 dielectric build on homogeneous background
 environment bulk permitt.  =    100.0000000 
 dielectric flags
 need gradient              =  F 
 need factor depend. sqrt   =  F 
 need gradient of logarithm =  T 

%%%% COMPUTE ELECTROSTATIC POTENTIAL %%%%%%%%%%%%%%%%%%%%%%%%%%%%%%%%%%%%%%%%%%%
 Starting from polarization: rhoiter =      1.190954
 Iteration #          1
 delta_qm =   0.428430E-03 delta_en =   0.521468E-06 tol =   0.100000E-06
 Iteration #          2
 delta_qm =   0.375186E-03 delta_en =   0.456662E-06 tol =   0.100000E-06
 Iteration #          3
 delta_qm =   0.273026E-03 delta_en =   0.332317E-06 tol =   0.100000E-06
 Iteration #          4
 delta_qm =   0.233494E-03 delta_en =   0.284200E-06 tol =   0.100000E-06
 Iteration #          5
 delta_qm =   0.182361E-03 delta_en =   0.221963E-06 tol =   0.100000E-06
 Iteration #          6
 delta_qm =   0.148818E-03 delta_en =   0.181136E-06 tol =   0.100000E-06
 Iteration #          7
 delta_qm =   0.122354E-03 delta_en =   0.148925E-06 tol =   0.100000E-06
 Iteration #          8
 delta_qm =   0.139574E-03 delta_en =   0.169884E-06 tol =   0.100000E-06
 Iteration #          9
 delta_qm =   0.137260E-03 delta_en =   0.167068E-06 tol =   0.100000E-06
 Iteration #         10
 delta_qm =   0.106016E-03 delta_en =   0.129038E-06 tol =   0.100000E-06
 Iteration #         11
 delta_qm =   0.836843E-04 delta_en =   0.101857E-06 tol =   0.100000E-06
 Iteration #         12
 delta_qm =   0.878411E-04 delta_en =   0.106917E-06 tol =   0.100000E-06
 Iteration #         13
 delta_qm =   0.976517E-04 delta_en =   0.118858E-06 tol =   0.100000E-06
 Iteration #         14
 delta_qm =   0.936508E-04 delta_en =   0.113988E-06 tol =   0.100000E-06
 Iteration #         15
 delta_qm =   0.745761E-04 delta_en =   0.907711E-07 tol =   0.100000E-06
 Charges are converged, exit!

%%%% ELECTRONS %%%%%%%%%%%%%%%%%%%%%%%%%%%%%%%%%%%%%%%%%%%%%%%%%%%%%%%%%%%%%%%%%
 number of electrons        =         89
 total electronic charge    =     89.0000000
 number of spin components  =  1

%%%% BOUNDARY %%%%%%%%%%%%%%%%%%%%%%%%%%%%%%%%%%%%%%%%%%%%%%%%%%%%%%%%%%%%%%%%%%
 boundary mode              = electronic           
 boundary is built as a function of a smooth density
 function type              =  1 
 using the optimal SCCS function with parameters 
 rhomax                     =      0.0050000 
 rhomin                     =      0.0001000 

%%%% DIELECTRIC %%%%%%%%%%%%%%%%%%%%%%%%%%%%%%%%%%%%%%%%%%%%%%%%%%%%%%%%%%%%%%%%%
 dielectric build on homogeneous background
 environment bulk permitt.  =    100.0000000 
 dielectric flags
 need gradient              =  F 
 need factor depend. sqrt   =  F 
 need gradient of logarithm =  T 

%%%% COMPUTE ELECTROSTATIC POTENTIAL %%%%%%%%%%%%%%%%%%%%%%%%%%%%%%%%%%%%%%%%%%%
 Starting from polarization: rhoiter =      1.179009
 Iteration #          1
 delta_qm =   0.372412E-03 delta_en =   0.453286E-06 tol =   0.100000E-06
 Iteration #          2
 delta_qm =   0.316769E-03 delta_en =   0.385559E-06 tol =   0.100000E-06
 Iteration #          3
 delta_qm =   0.226520E-03 delta_en =   0.275711E-06 tol =   0.100000E-06
 Iteration #          4
 delta_qm =   0.198594E-03 delta_en =   0.241720E-06 tol =   0.100000E-06
 Iteration #          5
 delta_qm =   0.140266E-03 delta_en =   0.170727E-06 tol =   0.100000E-06
 Iteration #          6
 delta_qm =   0.115741E-03 delta_en =   0.140875E-06 tol =   0.100000E-06
 Iteration #          7
 delta_qm =   0.856227E-04 delta_en =   0.104217E-06 tol =   0.100000E-06
 Iteration #          8
 delta_qm =   0.659533E-04 delta_en =   0.802758E-07 tol =   0.100000E-06
 Charges are converged, exit!

%%%% ELECTRONS %%%%%%%%%%%%%%%%%%%%%%%%%%%%%%%%%%%%%%%%%%%%%%%%%%%%%%%%%%%%%%%%%
 number of electrons        =         89
 total electronic charge    =     89.0000000
 number of spin components  =  1

%%%% BOUNDARY %%%%%%%%%%%%%%%%%%%%%%%%%%%%%%%%%%%%%%%%%%%%%%%%%%%%%%%%%%%%%%%%%%
 boundary mode              = electronic           
 boundary is built as a function of a smooth density
 function type              =  1 
 using the optimal SCCS function with parameters 
 rhomax                     =      0.0050000 
 rhomin                     =      0.0001000 

%%%% DIELECTRIC %%%%%%%%%%%%%%%%%%%%%%%%%%%%%%%%%%%%%%%%%%%%%%%%%%%%%%%%%%%%%%%%%
 dielectric build on homogeneous background
 environment bulk permitt.  =    100.0000000 
 dielectric flags
 need gradient              =  F 
 need factor depend. sqrt   =  F 
 need gradient of logarithm =  T 

%%%% COMPUTE ELECTROSTATIC POTENTIAL %%%%%%%%%%%%%%%%%%%%%%%%%%%%%%%%%%%%%%%%%%%
 Starting from polarization: rhoiter =      1.165903
 Iteration #          1
 delta_qm =   0.649006E-03 delta_en =   0.789945E-06 tol =   0.100000E-06
 Iteration #          2
 delta_qm =   0.613164E-03 delta_en =   0.746319E-06 tol =   0.100000E-06
 Iteration #          3
 delta_qm =   0.487877E-03 delta_en =   0.593826E-06 tol =   0.100000E-06
 Iteration #          4
 delta_qm =   0.408622E-03 delta_en =   0.497359E-06 tol =   0.100000E-06
 Iteration #          5
 delta_qm =   0.299457E-03 delta_en =   0.364488E-06 tol =   0.100000E-06
 Iteration #          6
 delta_qm =   0.261648E-03 delta_en =   0.318467E-06 tol =   0.100000E-06
 Iteration #          7
 delta_qm =   0.191947E-03 delta_en =   0.233631E-06 tol =   0.100000E-06
 Iteration #          8
 delta_qm =   0.152579E-03 delta_en =   0.185713E-06 tol =   0.100000E-06
 Iteration #          9
 delta_qm =   0.123427E-03 delta_en =   0.150231E-06 tol =   0.100000E-06
 Iteration #         10
 delta_qm =   0.876230E-04 delta_en =   0.106651E-06 tol =   0.100000E-06
 Iteration #         11
 delta_qm =   0.695445E-04 delta_en =   0.846468E-07 tol =   0.100000E-06
 Charges are converged, exit!

%%%% ELECTRONS %%%%%%%%%%%%%%%%%%%%%%%%%%%%%%%%%%%%%%%%%%%%%%%%%%%%%%%%%%%%%%%%%
 number of electrons        =         89
 total electronic charge    =     89.0000000
 number of spin components  =  1

%%%% BOUNDARY %%%%%%%%%%%%%%%%%%%%%%%%%%%%%%%%%%%%%%%%%%%%%%%%%%%%%%%%%%%%%%%%%%
 boundary mode              = electronic           
 boundary is built as a function of a smooth density
 function type              =  1 
 using the optimal SCCS function with parameters 
 rhomax                     =      0.0050000 
 rhomin                     =      0.0001000 

%%%% DIELECTRIC %%%%%%%%%%%%%%%%%%%%%%%%%%%%%%%%%%%%%%%%%%%%%%%%%%%%%%%%%%%%%%%%%
 dielectric build on homogeneous background
 environment bulk permitt.  =    100.0000000 
 dielectric flags
 need gradient              =  F 
 need factor depend. sqrt   =  F 
 need gradient of logarithm =  T 

%%%% COMPUTE ELECTROSTATIC POTENTIAL %%%%%%%%%%%%%%%%%%%%%%%%%%%%%%%%%%%%%%%%%%%
 Starting from polarization: rhoiter =      1.155633
 Iteration #          1
 delta_qm =   0.107273E-02 delta_en =   0.130568E-05 tol =   0.100000E-06
 Iteration #          2
 delta_qm =   0.992235E-03 delta_en =   0.120771E-05 tol =   0.100000E-06
 Iteration #          3
 delta_qm =   0.818813E-03 delta_en =   0.996627E-06 tol =   0.100000E-06
 Iteration #          4
 delta_qm =   0.674891E-03 delta_en =   0.821451E-06 tol =   0.100000E-06
 Iteration #          5
 delta_qm =   0.504087E-03 delta_en =   0.613555E-06 tol =   0.100000E-06
 Iteration #          6
 delta_qm =   0.440321E-03 delta_en =   0.535942E-06 tol =   0.100000E-06
 Iteration #          7
 delta_qm =   0.333624E-03 delta_en =   0.406074E-06 tol =   0.100000E-06
 Iteration #          8
 delta_qm =   0.269430E-03 delta_en =   0.327940E-06 tol =   0.100000E-06
 Iteration #          9
 delta_qm =   0.226325E-03 delta_en =   0.275474E-06 tol =   0.100000E-06
 Iteration #         10
 delta_qm =   0.177387E-03 delta_en =   0.215909E-06 tol =   0.100000E-06
 Iteration #         11
 delta_qm =   0.143048E-03 delta_en =   0.174112E-06 tol =   0.100000E-06
 Iteration #         12
 delta_qm =   0.111256E-03 delta_en =   0.135417E-06 tol =   0.100000E-06
 Iteration #         13
 delta_qm =   0.850860E-04 delta_en =   0.103563E-06 tol =   0.100000E-06
 Iteration #         14
 delta_qm =   0.805829E-04 delta_en =   0.980824E-07 tol =   0.100000E-06
 Charges are converged, exit!

%%%% ELECTRONS %%%%%%%%%%%%%%%%%%%%%%%%%%%%%%%%%%%%%%%%%%%%%%%%%%%%%%%%%%%%%%%%%
 number of electrons        =         89
 total electronic charge    =     89.0000000
 number of spin components  =  1

%%%% BOUNDARY %%%%%%%%%%%%%%%%%%%%%%%%%%%%%%%%%%%%%%%%%%%%%%%%%%%%%%%%%%%%%%%%%%
 boundary mode              = electronic           
 boundary is built as a function of a smooth density
 function type              =  1 
 using the optimal SCCS function with parameters 
 rhomax                     =      0.0050000 
 rhomin                     =      0.0001000 

%%%% DIELECTRIC %%%%%%%%%%%%%%%%%%%%%%%%%%%%%%%%%%%%%%%%%%%%%%%%%%%%%%%%%%%%%%%%%
 dielectric build on homogeneous background
 environment bulk permitt.  =    100.0000000 
 dielectric flags
 need gradient              =  F 
 need factor depend. sqrt   =  F 
 need gradient of logarithm =  T 

%%%% COMPUTE ELECTROSTATIC POTENTIAL %%%%%%%%%%%%%%%%%%%%%%%%%%%%%%%%%%%%%%%%%%%
 Starting from polarization: rhoiter =      1.132722
 Iteration #          1
 delta_qm =   0.127757E-02 delta_en =   0.155501E-05 tol =   0.100000E-06
 Iteration #          2
 delta_qm =   0.112698E-02 delta_en =   0.137172E-05 tol =   0.100000E-06
 Iteration #          3
 delta_qm =   0.972197E-03 delta_en =   0.118332E-05 tol =   0.100000E-06
 Iteration #          4
 delta_qm =   0.795667E-03 delta_en =   0.968455E-06 tol =   0.100000E-06
 Iteration #          5
 delta_qm =   0.578764E-03 delta_en =   0.704450E-06 tol =   0.100000E-06
 Iteration #          6
 delta_qm =   0.480533E-03 delta_en =   0.584886E-06 tol =   0.100000E-06
 Iteration #          7
 delta_qm =   0.382433E-03 delta_en =   0.465483E-06 tol =   0.100000E-06
 Iteration #          8
 delta_qm =   0.308178E-03 delta_en =   0.375102E-06 tol =   0.100000E-06
 Iteration #          9
 delta_qm =   0.240748E-03 delta_en =   0.293029E-06 tol =   0.100000E-06
 Iteration #         10
 delta_qm =   0.187077E-03 delta_en =   0.227703E-06 tol =   0.100000E-06
 Iteration #         11
 delta_qm =   0.158114E-03 delta_en =   0.192451E-06 tol =   0.100000E-06
 Iteration #         12
 delta_qm =   0.129693E-03 delta_en =   0.157857E-06 tol =   0.100000E-06
 Iteration #         13
 delta_qm =   0.997717E-04 delta_en =   0.121438E-06 tol =   0.100000E-06
 Iteration #         14
 delta_qm =   0.802603E-04 delta_en =   0.976897E-07 tol =   0.100000E-06
 Charges are converged, exit!

%%%% ELECTRONS %%%%%%%%%%%%%%%%%%%%%%%%%%%%%%%%%%%%%%%%%%%%%%%%%%%%%%%%%%%%%%%%%
 number of electrons        =         89
 total electronic charge    =     89.0000000
 number of spin components  =  1

%%%% BOUNDARY %%%%%%%%%%%%%%%%%%%%%%%%%%%%%%%%%%%%%%%%%%%%%%%%%%%%%%%%%%%%%%%%%%
 boundary mode              = electronic           
 boundary is built as a function of a smooth density
 function type              =  1 
 using the optimal SCCS function with parameters 
 rhomax                     =      0.0050000 
 rhomin                     =      0.0001000 

%%%% DIELECTRIC %%%%%%%%%%%%%%%%%%%%%%%%%%%%%%%%%%%%%%%%%%%%%%%%%%%%%%%%%%%%%%%%%
 dielectric build on homogeneous background
 environment bulk permitt.  =    100.0000000 
 dielectric flags
 need gradient              =  F 
 need factor depend. sqrt   =  F 
 need gradient of logarithm =  T 

%%%% COMPUTE ELECTROSTATIC POTENTIAL %%%%%%%%%%%%%%%%%%%%%%%%%%%%%%%%%%%%%%%%%%%
 Starting from polarization: rhoiter =      1.115719
 Iteration #          1
 delta_qm =   0.594545E-03 delta_en =   0.723658E-06 tol =   0.100000E-06
 Iteration #          2
 delta_qm =   0.513055E-03 delta_en =   0.624471E-06 tol =   0.100000E-06
 Iteration #          3
 delta_qm =   0.448142E-03 delta_en =   0.545461E-06 tol =   0.100000E-06
 Iteration #          4
 delta_qm =   0.360053E-03 delta_en =   0.438242E-06 tol =   0.100000E-06
 Iteration #          5
 delta_qm =   0.266309E-03 delta_en =   0.324141E-06 tol =   0.100000E-06
 Iteration #          6
 delta_qm =   0.220763E-03 delta_en =   0.268705E-06 tol =   0.100000E-06
 Iteration #          7
 delta_qm =   0.172104E-03 delta_en =   0.209478E-06 tol =   0.100000E-06
 Iteration #          8
 delta_qm =   0.133928E-03 delta_en =   0.163012E-06 tol =   0.100000E-06
 Iteration #          9
 delta_qm =   0.102147E-03 delta_en =   0.124330E-06 tol =   0.100000E-06
 Iteration #         10
 delta_qm =   0.807325E-04 delta_en =   0.982645E-07 tol =   0.100000E-06
 Charges are converged, exit!

%%%% ELECTRONS %%%%%%%%%%%%%%%%%%%%%%%%%%%%%%%%%%%%%%%%%%%%%%%%%%%%%%%%%%%%%%%%%
 number of electrons        =         89
 total electronic charge    =     89.0000000
 number of spin components  =  1

%%%% BOUNDARY %%%%%%%%%%%%%%%%%%%%%%%%%%%%%%%%%%%%%%%%%%%%%%%%%%%%%%%%%%%%%%%%%%
 boundary mode              = electronic           
 boundary is built as a function of a smooth density
 function type              =  1 
 using the optimal SCCS function with parameters 
 rhomax                     =      0.0050000 
 rhomin                     =      0.0001000 

%%%% DIELECTRIC %%%%%%%%%%%%%%%%%%%%%%%%%%%%%%%%%%%%%%%%%%%%%%%%%%%%%%%%%%%%%%%%%
 dielectric build on homogeneous background
 environment bulk permitt.  =    100.0000000 
 dielectric flags
 need gradient              =  F 
 need factor depend. sqrt   =  F 
 need gradient of logarithm =  T 

%%%% COMPUTE ELECTROSTATIC POTENTIAL %%%%%%%%%%%%%%%%%%%%%%%%%%%%%%%%%%%%%%%%%%%
 Starting from polarization: rhoiter =      1.117645
 Iteration #          1
 delta_qm =   0.506704E-03 delta_en =   0.616741E-06 tol =   0.100000E-06
 Iteration #          2
 delta_qm =   0.438098E-03 delta_en =   0.533236E-06 tol =   0.100000E-06
 Iteration #          3
 delta_qm =   0.370968E-03 delta_en =   0.451528E-06 tol =   0.100000E-06
 Iteration #          4
 delta_qm =   0.286824E-03 delta_en =   0.349111E-06 tol =   0.100000E-06
 Iteration #          5
 delta_qm =   0.214876E-03 delta_en =   0.261539E-06 tol =   0.100000E-06
 Iteration #          6
 delta_qm =   0.179741E-03 delta_en =   0.218773E-06 tol =   0.100000E-06
 Iteration #          7
 delta_qm =   0.135912E-03 delta_en =   0.165427E-06 tol =   0.100000E-06
 Iteration #          8
 delta_qm =   0.105840E-03 delta_en =   0.128824E-06 tol =   0.100000E-06
 Iteration #          9
 delta_qm =   0.827859E-04 delta_en =   0.100764E-06 tol =   0.100000E-06
 Iteration #         10
 delta_qm =   0.662244E-04 delta_en =   0.806058E-07 tol =   0.100000E-06
 Charges are converged, exit!

%%%% ELECTRONS %%%%%%%%%%%%%%%%%%%%%%%%%%%%%%%%%%%%%%%%%%%%%%%%%%%%%%%%%%%%%%%%%
 number of electrons        =         89
 total electronic charge    =     89.0000000
 number of spin components  =  1

%%%% BOUNDARY %%%%%%%%%%%%%%%%%%%%%%%%%%%%%%%%%%%%%%%%%%%%%%%%%%%%%%%%%%%%%%%%%%
 boundary mode              = electronic           
 boundary is built as a function of a smooth density
 function type              =  1 
 using the optimal SCCS function with parameters 
 rhomax                     =      0.0050000 
 rhomin                     =      0.0001000 

%%%% DIELECTRIC %%%%%%%%%%%%%%%%%%%%%%%%%%%%%%%%%%%%%%%%%%%%%%%%%%%%%%%%%%%%%%%%%
 dielectric build on homogeneous background
 environment bulk permitt.  =    100.0000000 
 dielectric flags
 need gradient              =  F 
 need factor depend. sqrt   =  F 
 need gradient of logarithm =  T 
