
     Program PWSCF v.6.1 (svn rev. 13369) starts on  4Oct2017 at 13:15:43 

     This program is part of the open-source Quantum ESPRESSO suite
     for quantum simulation of materials; please cite
         "P. Giannozzi et al., J. Phys.:Condens. Matter 21 395502 (2009);
          URL http://www.quantum-espresso.org", 
     in publications or presentations arising from this work. More details at
     http://www.quantum-espresso.org/quote

     Serial version
     Reading input from charged.in

     Current dimensions of program PWSCF are:
     Max number of different atomic species (ntypx) = 10
     Max number of k-points (npk) =  40000
     Max angular momentum in pseudopotentials (lmaxx) =  3
               file C.pbe-rrkjus.UPF: wavefunction(s)  2S 2P renormalized
               file O.pbe-rrkjus.UPF: wavefunction(s)  2S renormalized

     gamma-point specific algorithms are used

     G-vector sticks info
     --------------------
     sticks:   dense  smooth     PW     G-vecs:    dense   smooth      PW
     Sum        2205    1099    269               330909   116965   14571



     bravais-lattice index     =            8
     lattice parameter (alat)  =      10.6881  a.u.
     unit-cell volume          =    4181.1215 (a.u.)^3
     number of atoms/cell      =           10
     number of atomic types    =            3
     number of electrons       =        89.00
     number of Kohn-Sham states=           80
     kinetic-energy cutoff     =      35.0000  Ry
     charge density cutoff     =     280.0000  Ry
     convergence threshold     =      5.0E-02
     mixing beta               =       0.7000
     number of iterations used =            8  plain     mixing
     Exchange-correlation      = PBE ( 1  4  3  4 0 0)


     Environ Module
     ==============

     Plese cite
         O. Andreussi, I. Dabo and N. Marzari, J. Chem. Phys. 136, 064102 (2012)         
     in publications or presentations arising from this work.

     compensation onset threshold      =               0.1000E+03 
     static permittivity               =                   100.00 
     epsilon calculation mode          =               electronic 

     Electrostatic Setup
     -------------------
     electrostatic problem to solve    = generalized              
     numerical solver adopted          = cg                       
     type of auxiliary density adopted = none                     
     type of core tool for poisson     = fft                      
     type of core tool for s(r) deriv  = analytic                 



     celldm(1)=  10.688100  celldm(2)=   0.866025  celldm(3)=   3.954220
     celldm(4)=   0.000000  celldm(5)=   0.000000  celldm(6)=   0.000000

     crystal axes: (cart. coord. in units of alat)
               a(1) = (   1.000000   0.000000   0.000000 )  
               a(2) = (   0.000000   0.866025   0.000000 )  
               a(3) = (   0.000000   0.000000   3.954220 )  

     reciprocal axes: (cart. coord. in units 2 pi/alat)
               b(1) = (  1.000000  0.000000  0.000000 )  
               b(2) = (  0.000000  1.154701  0.000000 )  
               b(3) = (  0.000000  0.000000  0.252894 )  


     PseudoPot. # 1 for C  read from file:
     ../../../pseudo/C.pbe-rrkjus.UPF
     MD5 check sum: 00fb224312de0c5b6853bd333518df6f
     Pseudo is Ultrasoft, Zval =  4.0
     Generated by new atomic code, or converted to UPF format
     Using radial grid of  627 points,  4 beta functions with: 
                l(1) =   0
                l(2) =   0
                l(3) =   1
                l(4) =   1
     Q(r) pseudized with 0 coefficients 


     PseudoPot. # 2 for O  read from file:
     ../../../pseudo/O.pbe-rrkjus.UPF
     MD5 check sum: 390ba29e75625707450f3bd3f0eb6be9
     Pseudo is Ultrasoft, Zval =  6.0
     Generated by new atomic code, or converted to UPF format
     Using radial grid of 1269 points,  4 beta functions with: 
                l(1) =   0
                l(2) =   0
                l(3) =   1
                l(4) =   1
     Q(r) pseudized with 0 coefficients 


     PseudoPot. # 3 for Pt read from file:
     ../../../pseudo/Pt.pbe-n-rrkjus.UPF
     MD5 check sum: df5be8f5ed4f66d4aed38ca70ec8d507
     Pseudo is Ultrasoft + core correction, Zval = 10.0
     Generated using "atomic" code by A. Dal Corso  v.5.0.2 svn rev. 9415
     Using radial grid of 1277 points,  6 beta functions with: 
                l(1) =   0
                l(2) =   0
                l(3) =   1
                l(4) =   1
                l(5) =   2
                l(6) =   2
     Q(r) pseudized with 0 coefficients 


     atomic species   valence    mass     pseudopotential
        C              4.00     1.00000     C ( 1.00)
        O              6.00     1.00000     O ( 1.00)
        Pt            10.00     1.00000     Pt( 1.00)

     No symmetry found



   Cartesian axes

     site n.     atom                  positions (alat units)
         1           C   tau(   1) = (   0.4991611   0.4347567   1.2070461  )
         2           O   tau(   2) = (   0.4991542   0.4322212   1.4109013  )
         3           Pt  tau(   3) = (   0.7542339   0.0091745   0.8413229  )
         4           Pt  tau(   4) = (   0.2441023   0.0091745   0.8413226  )
         5           Pt  tau(   5) = (   0.0000034   0.4416918   0.8391348  )
         6           Pt  tau(   6) = (   0.4991682   0.4417635   0.8776299  )
         7           Pt  tau(   7) = (   0.0000038   0.7300598   0.4308181  )
         8           Pt  tau(   8) = (   0.4991683   0.7202168   0.4447460  )
         9           Pt  tau(   9) = (   0.2524172   0.2949237   0.4386572  )
        10           Pt  tau(  10) = (   0.7459196   0.2949237   0.4386575  )

     number of k points=     1  Marzari-Vanderbilt smearing, width (Ry)=  0.0300
                       cart. coord. in units 2pi/alat
        k(    1) = (   0.0000000   0.0000000   0.0000000), wk =   2.0000000

     Dense  grid:   165455 G-vectors     FFT dimensions: (  60,  50, 225)

     Smooth grid:    58483 G-vectors     FFT dimensions: (  45,  36, 160)

     Estimated max dynamical RAM per process >     216.67MB

     Initial potential from superposition of free atoms
     Check: negative starting charge=   -0.001782

     starting charge   89.99859, renormalised to   89.00000

     negative rho (up, down):  1.762E-03 0.000E+00
     Starting wfc are   80 randomized atomic wfcs

     total cpu time spent up to now is       20.8 secs

     Self-consistent Calculation

     iteration #  1     ecut=    35.00 Ry     beta=0.70
     Davidson diagonalization with overlap
     ethr =  1.00E-02,  avg # of iterations =  5.0

     negative rho (up, down):  1.526E-03 0.000E+00

     add environment contribution to local potential
     polarization accuracy = 7.8E-05, # of iterations =  28

     total cpu time spent up to now is       41.3 secs

     total energy              =    -622.68843633 Ry
     Harris-Foulkes estimate   =    -624.21108732 Ry
     estimated scf accuracy    <       1.86594048 Ry
     electrostatic embedding   =       0.03381190 Ry
     correction to one-el term =       0.00000000 Ry

     iteration #  2     ecut=    35.00 Ry     beta=0.70
     Davidson diagonalization with overlap
     ethr =  2.10E-03,  avg # of iterations =  8.0

     negative rho (up, down):  2.100E-02 0.000E+00

     add environment contribution to local potential
     polarization accuracy = 6.5E-05, # of iterations =  53

     total cpu time spent up to now is       75.1 secs

     total energy              =    -618.40244079 Ry
     Harris-Foulkes estimate   =    -661.16995535 Ry
     estimated scf accuracy    <      44.49936407 Ry
     electrostatic embedding   =       0.43208237 Ry
     correction to one-el term =      33.88593165 Ry

     iteration #  3     ecut=    35.00 Ry     beta=0.70
     Davidson diagonalization with overlap
     ethr =  2.10E-03,  avg # of iterations =  6.0

     negative rho (up, down):  7.304E-03 0.000E+00

     add environment contribution to local potential
     polarization accuracy = 4.7E-05, # of iterations =  33

     total cpu time spent up to now is       98.4 secs

     total energy              =    -623.34208326 Ry
     Harris-Foulkes estimate   =    -656.55172456 Ry
     estimated scf accuracy    <       1.39380598 Ry
     electrostatic embedding   =       0.46603309 Ry
     correction to one-el term =      32.33549224 Ry

     iteration #  4     ecut=    35.00 Ry     beta=0.70
     Davidson diagonalization with overlap
     ethr =  1.57E-03,  avg # of iterations =  2.0

     negative rho (up, down):  1.007E-02 0.000E+00

     add environment contribution to local potential
     polarization accuracy = 4.1E-05, # of iterations =  41

     total cpu time spent up to now is      125.2 secs

     total energy              =    -623.50476922 Ry
     Harris-Foulkes estimate   =    -656.24038069 Ry
     estimated scf accuracy    <       0.73254892 Ry
     electrostatic embedding   =       0.43845979 Ry
     correction to one-el term =      32.11744160 Ry

     iteration #  5     ecut=    35.00 Ry     beta=0.70
     Davidson diagonalization with overlap
     ethr =  8.23E-04,  avg # of iterations =  2.0

     negative rho (up, down):  5.722E-03 0.000E+00

     add environment contribution to local potential
     polarization accuracy = 9.5E-05, # of iterations =  36

     total cpu time spent up to now is      149.2 secs

     total energy              =    -623.47500047 Ry
     Harris-Foulkes estimate   =    -655.95946913 Ry
     estimated scf accuracy    <       0.14878313 Ry
     electrostatic embedding   =       0.43437449 Ry
     correction to one-el term =      32.00401548 Ry

     iteration #  6     ecut=    35.00 Ry     beta=0.70
     Davidson diagonalization with overlap
     ethr =  1.67E-04,  avg # of iterations = 12.0

     negative rho (up, down):  4.329E-03 0.000E+00

     add environment contribution to local potential
     polarization accuracy = 8.1E-05, # of iterations =  38

     total cpu time spent up to now is      175.4 secs

     total energy              =    -623.44278429 Ry
     Harris-Foulkes estimate   =    -655.06435642 Ry
     estimated scf accuracy    <       0.12438798 Ry
     electrostatic embedding   =       0.41572630 Ry
     correction to one-el term =      31.17724755 Ry

     iteration #  7     ecut=    35.00 Ry     beta=0.70
     Davidson diagonalization with overlap
     ethr =  1.40E-04,  avg # of iterations =  2.0

     negative rho (up, down):  4.484E-03 0.000E+00

     add environment contribution to local potential
     polarization accuracy = 7.8E-05, # of iterations =  39

     total cpu time spent up to now is     1932.9 secs

     total energy              =    -623.41282707 Ry
     Harris-Foulkes estimate   =    -654.45838640 Ry
     estimated scf accuracy    <       0.10691985 Ry
     electrostatic embedding   =       0.40552749 Ry
     correction to one-el term =      30.62005228 Ry

     iteration #  8     ecut=    35.00 Ry     beta=0.70
     Davidson diagonalization with overlap
     ethr =  1.20E-04,  avg # of iterations =  2.0

     negative rho (up, down):  2.136E-03 0.000E+00

     total cpu time spent up to now is     1938.6 secs

     End of self-consistent calculation

          k = 0.0000 0.0000 0.0000 (  7286 PWs)   bands (ev):

   -32.9018 -19.2033 -17.5086 -16.4926 -16.0351 -15.6835 -15.6682 -15.2719
   -15.1193 -14.2289 -14.1888 -14.0424 -13.7522 -13.7336 -13.6567 -13.5775
   -12.8571 -12.7893 -12.7487 -12.5573 -12.5314 -12.5183 -12.4179 -12.4013
   -12.3408 -12.2676 -12.1323 -12.0946 -12.0200 -11.7172 -11.5994 -10.9121
   -10.7292 -10.4567 -10.2464 -10.2122 -10.1611  -9.9384  -9.8898  -9.6889
    -9.5129  -9.4786  -9.2887  -9.2722  -9.1919  -9.0332  -8.7250  -7.8369
    -7.5498  -7.2939  -6.8717  -6.1109  -5.9474  -5.2246  -4.8103  -4.4870
    -3.8939  -3.6657  -3.2966  -2.9677  -2.6553  -2.1907  -1.9255  -1.4802
    -0.9997  -0.7220  -0.5380  -0.2286  -0.0798   0.3658   0.7958   0.8113
     0.8760   1.0145   1.5908   1.6555   1.7368   1.8553   2.0885   2.2351

     the Fermi energy is    -9.1080 ev

!    total energy              =    -623.40410761 Ry
     Harris-Foulkes estimate   =    -653.93991225 Ry
     estimated scf accuracy    <       0.03863703 Ry

     The total energy is the sum of the following terms:

     one-electron contribution =   -3970.51678367 Ry
     hartree contribution      =    2006.33715670 Ry
     xc contribution           =    -262.93120566 Ry
     ewald contribution        =    1573.20467954 Ry
     smearing contrib. (-TS)   =       0.00214130 Ry
     electrostatic embedding   =       0.39837045 Ry
     correction to one-el term =      30.10153373 Ry

     convergence has been achieved in   8 iterations

     negative rho (up, down):  2.136E-03 0.000E+00

     Forces acting on atoms (cartesian axes, Ry/au):

     atom    1 type  1   force =    -0.10267556   -0.06871198    0.06555548
     atom    2 type  2   force =    -0.04761771   -0.04153714   -0.02491626
     atom    3 type  3   force =     0.15943627    0.03948778    0.07726959
     atom    4 type  3   force =    -0.14209602    0.04246347    0.03915485
     atom    5 type  3   force =     0.18569854   -0.04112528    0.00177396
     atom    6 type  3   force =    -0.10389747   -0.05261179    0.13337217
     atom    7 type  3   force =     0.18771986    0.15420418   -0.07341915
     atom    8 type  3   force =    -0.11928519    0.12553797   -0.07380175
     atom    9 type  3   force =    -0.13166653   -0.07842654   -0.05181633
     atom   10 type  3   force =     0.11438380   -0.07928067   -0.09317256

     Total force =     0.549770     Total SCF correction =     0.647051
     SCF correction compared to forces is large: reduce conv_thr to get better values

     Writing output data file pwscf.save

     init_run     :     20.00s CPU     20.35s WALL (       1 calls)
     electrons    :    184.28s CPU   1917.96s WALL (       1 calls)
     forces       :      8.93s CPU      9.77s WALL (       1 calls)

     Called by init_run:
     wfcinit      :      0.68s CPU      0.60s WALL (       1 calls)
     potinit      :      3.28s CPU      3.34s WALL (       1 calls)

     Called by electrons:
     c_bands      :     18.68s CPU     14.55s WALL (       8 calls)
     sum_band     :     14.33s CPU     13.89s WALL (       8 calls)
     v_of_rho     :      5.09s CPU      5.47s WALL (       9 calls)
     newd         :      8.49s CPU     10.76s WALL (       9 calls)
     mix_rho      :      0.45s CPU      0.59s WALL (       8 calls)

     Called by c_bands:
     init_us_2    :      0.17s CPU      0.19s WALL (      17 calls)
     regterg      :     17.63s CPU     13.47s WALL (       8 calls)

     Called by sum_band:
     sum_band:bec :      0.00s CPU      0.00s WALL (       8 calls)
     addusdens    :     11.40s CPU     10.99s WALL (       8 calls)

     Called by *egterg:
     h_psi        :     11.85s CPU     10.64s WALL (      48 calls)
     s_psi        :      1.28s CPU      0.35s WALL (      48 calls)
     g_psi        :      0.12s CPU      0.12s WALL (      39 calls)
     rdiaghg      :      0.72s CPU      0.67s WALL (      47 calls)

     Called by h_psi:
     h_psi:pot    :     11.75s CPU     10.53s WALL (      48 calls)
     h_psi:calbec :      0.66s CPU      0.34s WALL (      48 calls)
     vloc_psi     :      9.76s CPU      9.83s WALL (      48 calls)
     add_vuspsi   :      1.33s CPU      0.36s WALL (      48 calls)

     General routines
     calbec       :      1.01s CPU      0.53s WALL (      60 calls)
     fft          :     15.96s CPU     16.09s WALL (     794 calls)
     ffts         :      0.12s CPU      0.12s WALL (      17 calls)
     fftw         :      9.16s CPU      9.22s WALL (    2126 calls)
     interpolate  :      0.57s CPU      0.66s WALL (      17 calls)
     davcio       :      0.04s CPU      0.05s WALL (       1 calls)


     Environ routines
     calc_eelect  :      0.02s CPU      0.02s WALL (      16 calls)
     calc_velect  :    133.97s CPU   1869.29s WALL (      14 calls)
     dielectric   :      0.34s CPU      0.43s WALL (       9 calls)
     calc_felect  :      0.86s CPU      0.88s WALL (       1 calls)

     PWSCF        :  3m33.70s CPU    32m28.74s WALL


   This run was terminated on:  13:48:12   4Oct2017            

=------------------------------------------------------------------------------=
   JOB DONE.
=------------------------------------------------------------------------------=

%%%% IONS %%%%%%%%%%%%%%%%%%%%%%%%%%%%%%%%%%%%%%%%%%%%%%%%%%%%%%%%%%%%%%%%%%%%%%
 number of ions             =         10
 ionic center of charge     =      0.3882415     0.3750182     0.7201831
 total ionic charge         =    -90.0000000
 ionic dipole               =      0.0000000     0.0000000     0.0000000
 ionic quadrupole (pc)      =   -730.5101255  -614.6110457  -876.7220256
 ionic quadrupole (gauss)   =   -741.7601255  -625.8610457  -887.9720256
 ion   1 type =  1 coordinates =      5.3350841     4.6467234    12.9010299
 ion   2 type =  2 coordinates =      5.3350096     4.6196233    15.0798543
 ion   3 type =  3 coordinates =      8.0613271     0.0980580     8.9921429
 ion   4 type =  3 coordinates =      2.6089894     0.0980583     8.9921406
 ion   5 type =  3 coordinates =      0.0000366     4.7208463     8.9687569
 ion   6 type =  3 coordinates =      5.3351596     4.7216127     9.3801964
 ion   7 type =  3 coordinates =      0.0000411     7.8029520     4.6046265
 ion   8 type =  3 coordinates =      5.3351612     7.6977491     4.7534894
 ion   9 type =  3 coordinates =      2.6978606     3.1521739     4.6884123
 ion  10 type =  3 coordinates =      7.9724637     3.1521745     4.6884152

%%%% SYSTEM %%%%%%%%%%%%%%%%%%%%%%%%%%%%%%%%%%%%%%%%%%%%%%%%%%%%%%%%%%%%%%%%%%%%
 system is built from all present ionic types
 system defined dimension   =  0 
 system defined axis        =  3 
 system center              =      0.3882415     0.3750182     0.7201831 
 system width               =      1.5145225 

%%%% ELECTRONS %%%%%%%%%%%%%%%%%%%%%%%%%%%%%%%%%%%%%%%%%%%%%%%%%%%%%%%%%%%%%%%%%
 number of electrons        =         89
 total electronic charge    =     89.0000000
 number of spin components  =  1

%%%% BOUNDARY %%%%%%%%%%%%%%%%%%%%%%%%%%%%%%%%%%%%%%%%%%%%%%%%%%%%%%%%%%%%%%%%%%
 boundary mode              = electronic           
 boundary is built as a function of a smooth density
 function type              =  2 
 using the modified SCCS function with parameters 
 rhomax                     =      0.0050000 
 rhomin                     =      0.0001000 

%%%% DIELECTRIC %%%%%%%%%%%%%%%%%%%%%%%%%%%%%%%%%%%%%%%%%%%%%%%%%%%%%%%%%%%%%%%%%
 dielectric build on homogeneous background
 environment bulk permitt.  =    100.0000000 
 dielectric flags
 need gradient              =  F 
 need factor depend. sqrt   =  T 
 need gradient of logarithm =  T 

%%%% COMPUTE ELECTROSTATIC POTENTIAL %%%%%%%%%%%%%%%%%%%%%%%%%%%%%%%%%%%%%%%%%%%
 Iteration #          1
  pAp =  1295.4770044426236  rzold =  1274.3041716080186  alpha =  0.9836563422106326
 delta_qm =   0.176401E+00 delta_en =   0.210042E+05 tol =   0.100000E-03
 Iteration #          2
  pAp =  8450.281648144164  rzold =  406.98763138319924  alpha =  0.04816261141693202
 delta_qm =   0.216281E-01 delta_en =   0.315748E+03 tol =   0.100000E-03
 Iteration #          3
  pAp =  84.1878487225853  rzold =  2.9118568533286244  alpha =  0.03458761445400199
 delta_qm =   0.155261E-01 delta_en =   0.162715E+03 tol =   0.100000E-03
 Iteration #          4
  pAp =  1.3116068829739067  rzold =  0.26700604696964064  alpha =  0.20357170310378167
 delta_qm =   0.100863E-01 delta_en =   0.686700E+02 tol =   0.100000E-03
 Iteration #          5
  pAp =  0.09733785975771062  rzold =  0.03452693355009507  alpha =  0.3547122736830056
 delta_qm =   0.612097E-02 delta_en =   0.252898E+02 tol =   0.100000E-03
 Iteration #          6
  pAp =  0.029439455358898078  rzold =  0.012997333733416445  alpha =  0.4414936884859183
 delta_qm =   0.448438E-02 delta_en =   0.135740E+02 tol =   0.100000E-03
 Iteration #          7
  pAp =  0.018321780811609612  rzold =  0.007869257022893365  alpha =  0.42950284711991554
 delta_qm =   0.271837E-02 delta_en =   0.498794E+01 tol =   0.100000E-03
 Iteration #          8
  pAp =  0.01159924655981197  rzold =  0.006567386112161421  alpha =  0.5661907502609275
 delta_qm =   0.258133E-02 delta_en =   0.449772E+01 tol =   0.100000E-03
 Iteration #          9
  pAp =  0.004294818942360572  rzold =  0.002840514544492758  alpha =  0.6613816746676447
 delta_qm =   0.237687E-02 delta_en =   0.381343E+01 tol =   0.100000E-03
 Iteration #         10
  pAp =  0.00336374257735641  rzold =  0.0017373568150618034  alpha =  0.5164951761639278
 delta_qm =   0.212290E-02 delta_en =   0.304201E+01 tol =   0.100000E-03
 Iteration #         11
  pAp =  0.001990115558539199  rzold =  0.001430706213542474  alpha =  0.7189060993988976
 delta_qm =   0.183096E-02 delta_en =   0.226288E+01 tol =   0.100000E-03
 Iteration #         12
  pAp =  0.002158586646598023  rzold =  0.0018046897626802024  alpha =  0.8360515736185204
 delta_qm =   0.222113E-02 delta_en =   0.333007E+01 tol =   0.100000E-03
 Iteration #         13
  pAp =  0.0017625852753274044  rzold =  0.0010926867197784814  alpha =  0.6199341019545919
 delta_qm =   0.190626E-02 delta_en =   0.245283E+01 tol =   0.100000E-03
 Iteration #         14
  pAp =  0.009285818805587024  rzold =  0.0007707117483565707  alpha =  0.08299879251282122
 delta_qm =   0.182779E-02 delta_en =   0.225505E+01 tol =   0.100000E-03
 Iteration #         15
  pAp =  0.0031844983909423774  rzold =  0.001162424151038497  alpha =  0.365025824583477
 delta_qm =   0.100969E-02 delta_en =   0.688140E+00 tol =   0.100000E-03
 Iteration #         16
  pAp =  0.001397799215215917  rzold =  0.0004047804619866587  alpha =  0.2895841245154316
 delta_qm =   0.117478E-02 delta_en =   0.931576E+00 tol =   0.100000E-03
 Iteration #         17
  pAp =  0.008893863956659146  rzold =  0.0013054737324774699  alpha =  0.1467836408156453
 delta_qm =   0.108350E-02 delta_en =   0.792432E+00 tol =   0.100000E-03
 Iteration #         18
  pAp =  0.00041901048533846103  rzold =  0.0003077558643065955  alpha =  0.7344824892818655
 delta_qm =   0.103476E-02 delta_en =   0.722743E+00 tol =   0.100000E-03
 Iteration #         19
  pAp =  0.00020676055548229867  rzold =  0.000201323181126485  alpha =  0.973702071252758
 delta_qm =   0.752405E-03 delta_en =   0.382127E+00 tol =   0.100000E-03
 Iteration #         20
  pAp =  0.00033084609589117454  rzold =  0.00022181629446033635  alpha =  0.6704516003516588
 delta_qm =   0.781384E-03 delta_en =   0.412128E+00 tol =   0.100000E-03
 Iteration #         21
  pAp =  0.00013281210586389147  rzold =  0.000094860665858635  alpha =  0.7142471331329551
 delta_qm =   0.518230E-03 delta_en =   0.181280E+00 tol =   0.100000E-03
 Iteration #         22
  pAp =  0.00009045702750532982  rzold =  0.000048218434549001036  alpha =  0.5330534937836638
 delta_qm =   0.267319E-03 delta_en =   0.482350E-01 tol =   0.100000E-03
 Iteration #         23
  pAp =  0.00002309656910289407  rzold =  0.000013870864961098303  alpha =  0.6005595419520661
 delta_qm =   0.134215E-03 delta_en =   0.121592E-01 tol =   0.100000E-03
 Iteration #         24
  pAp =  0.000006041168407199402  rzold =  0.000004192890877846737  alpha =  0.6940529704237298
 delta_qm =   0.743617E-04 delta_en =   0.373252E-02 tol =   0.100000E-03
 Iteration #         25
  pAp =  0.000004270291647606613  rzold =  0.0000010866995437299622  alpha =  0.2544789989552655
 delta_qm =   0.600411E-04 delta_en =   0.243333E-02 tol =   0.100000E-03
 Iteration #         26
  pAp =  0.0000616229383599151  rzold =  0.000004178340074389704  alpha =  0.06780494707970075
 delta_qm =   0.419009E-04 delta_en =   0.118509E-02 tol =   0.100000E-03
 Iteration #         27
  pAp =  4.5724734095181053E-7  rzold =  2.6222670526545065E-7  alpha =  0.5734898418864437
 delta_qm =   0.184587E-04 delta_en =   0.229987E-03 tol =   0.100000E-03
 Iteration #         28
  pAp =  1.232962374763276E-7  rzold =  7.712921162968478E-8  alpha =  0.6255601404259663
 delta_qm =   0.107346E-04 delta_en =   0.777820E-04 tol =   0.100000E-03
 Charges are converged, exit!

%%%% ELECTRONS %%%%%%%%%%%%%%%%%%%%%%%%%%%%%%%%%%%%%%%%%%%%%%%%%%%%%%%%%%%%%%%%%
 number of electrons        =         89
 total electronic charge    =     89.0000000
 number of spin components  =  1

%%%% BOUNDARY %%%%%%%%%%%%%%%%%%%%%%%%%%%%%%%%%%%%%%%%%%%%%%%%%%%%%%%%%%%%%%%%%%
 boundary mode              = electronic           
 boundary is built as a function of a smooth density
 function type              =  2 
 using the modified SCCS function with parameters 
 rhomax                     =      0.0050000 
 rhomin                     =      0.0001000 

%%%% DIELECTRIC %%%%%%%%%%%%%%%%%%%%%%%%%%%%%%%%%%%%%%%%%%%%%%%%%%%%%%%%%%%%%%%%%
 dielectric build on homogeneous background
 environment bulk permitt.  =    100.0000000 
 dielectric flags
 need gradient              =  F 
 need factor depend. sqrt   =  T 
 need gradient of logarithm =  T 

%%%% COMPUTE ELECTROSTATIC POTENTIAL %%%%%%%%%%%%%%%%%%%%%%%%%%%%%%%%%%%%%%%%%%%
 Warning: bad guess with residual norm =   0.296417E+07, reset to no guess
 Iteration #          1
  pAp =  1293.127608393654  rzold =  1274.8185228766588  alpha =  0.9858412384066727
 delta_qm =   0.528554E+00 delta_en =   0.188574E+06 tol =   0.100000E-03
 Iteration #          2
  pAp =  19643.287772427844  rzold =  576.1026791745146  alpha =  0.02932822070565788
 delta_qm =   0.816979E-01 delta_en =   0.450532E+04 tol =   0.100000E-03
 Iteration #          3
  pAp =  262.6815819513122  rzold =  9.313840407764157  alpha =  0.03545676989828114
 delta_qm =   0.767604E-01 delta_en =   0.397720E+04 tol =   0.100000E-03
 Iteration #          4
  pAp =  12.502257326137002  rzold =  1.4618053532195878  alpha =  0.11692331353343391
 delta_qm =   0.380144E-01 delta_en =   0.975440E+03 tol =   0.100000E-03
 Iteration #          5
  pAp =  0.24430642080279977  rzold =  0.07991936790090805  alpha =  0.3271275787115627
 delta_qm =   0.219630E-01 delta_en =   0.325603E+03 tol =   0.100000E-03
 Iteration #          6
  pAp =  0.08195164442675718  rzold =  0.0298059625591115  alpha =  0.36370182401586887
 delta_qm =   0.161394E-01 delta_en =   0.175824E+03 tol =   0.100000E-03
 Iteration #          7
  pAp =  0.02253901760651476  rzold =  0.015265912844907394  alpha =  0.6773104804929421
 delta_qm =   0.124461E-01 delta_en =   0.104561E+03 tol =   0.100000E-03
 Iteration #          8
  pAp =  0.03163000448799374  rzold =  0.018346860965020483  alpha =  0.5800461069167622
 delta_qm =   0.140436E-01 delta_en =   0.133126E+03 tol =   0.100000E-03
 Iteration #          9
  pAp =  0.028142257332450904  rzold =  0.013948912849107086  alpha =  0.49565721343264674
 delta_qm =   0.160008E-01 delta_en =   0.172818E+03 tol =   0.100000E-03
 Iteration #         10
  pAp =  0.015599564250437539  rzold =  0.008970378648719237  alpha =  0.5750403347624043
 delta_qm =   0.159531E-01 delta_en =   0.171789E+03 tol =   0.100000E-03
 Iteration #         11
  pAp =  0.004260045004990116  rzold =  0.009848173393894266  alpha =  2.3117533693560395
 delta_qm =   0.328475E-01 delta_en =   0.728296E+03 tol =   0.100000E-03
 Iteration #         12
  pAp =  -0.04618144123502842  rzold =  0.07336756638673209  alpha =  -1.588680743274056
 delta_qm =   0.862427E-01 delta_en =   0.502051E+04 tol =   0.100000E-03
 Iteration #         13
  pAp =  4.04088577914864  rzold =  0.5037893713687135  alpha =  0.12467300460911694
 delta_qm =   0.216874E-01 delta_en =   0.317483E+03 tol =   0.100000E-03
 Iteration #         14
  pAp =  1.671684913260151  rzold =  0.06063626511883043  alpha =  0.036272544328091384
 delta_qm =   0.203330E-01 delta_en =   0.279065E+03 tol =   0.100000E-03
 Iteration #         15
  pAp =  0.0616488080125363  rzold =  0.02023774090880612  alpha =  0.32827465057703586
 delta_qm =   0.106938E-01 delta_en =   0.771908E+02 tol =   0.100000E-03
 Iteration #         16
  pAp =  0.035660022522049015  rzold =  0.007654559097331288  alpha =  0.21465379312641722
 delta_qm =   0.723659E-02 delta_en =   0.353486E+02 tol =   0.100000E-03
 Iteration #         17
  pAp =  0.3013270093588284  rzold =  0.025578232787822907  alpha =  0.08488529734605918
 delta_qm =   0.738726E-02 delta_en =   0.368359E+02 tol =   0.100000E-03
 Iteration #         18
  pAp =  0.006416372139907606  rzold =  0.002840163931690278  alpha =  0.44264326784062985
 delta_qm =   0.565627E-02 delta_en =   0.215955E+02 tol =   0.100000E-03
 Iteration #         19
  pAp =  0.00225712870959281  rzold =  0.0015039078530858195  alpha =  0.6662924655976429
 delta_qm =   0.486255E-02 delta_en =   0.159600E+02 tol =   0.100000E-03
 Iteration #         20
  pAp =  0.001067727851625824  rzold =  0.0009526761250981744  alpha =  0.8922462064163065
 delta_qm =   0.434257E-02 delta_en =   0.127291E+02 tol =   0.100000E-03
 Iteration #         21
  pAp =  0.00149813592412383  rzold =  0.0009736515772310302  alpha =  0.6499087042455515
 delta_qm =   0.450630E-02 delta_en =   0.137070E+02 tol =   0.100000E-03
 Iteration #         22
  pAp =  0.001481599695754658  rzold =  0.0008993236752107084  alpha =  0.606995045819468
 delta_qm =   0.386289E-02 delta_en =   0.100723E+02 tol =   0.100000E-03
 Iteration #         23
  pAp =  0.0009739942021508027  rzold =  0.0008267419292761126  alpha =  0.8488160683610608
 delta_qm =   0.411571E-02 delta_en =   0.114339E+02 tol =   0.100000E-03
 Iteration #         24
  pAp =  0.0007898704799989936  rzold =  0.0008764742847019976  alpha =  1.109643045152307
 delta_qm =   0.562946E-02 delta_en =   0.213913E+02 tol =   0.100000E-03
 Iteration #         25
  pAp =  0.0015365476712082765  rzold =  0.0012538819712191473  alpha =  0.8160384443088233
 delta_qm =   0.663552E-02 delta_en =   0.297203E+02 tol =   0.100000E-03
 Iteration #         26
  pAp =  0.15652572580073543  rzold =  0.006206547144869322  alpha =  0.03965193014195345
 delta_qm =   0.623956E-02 delta_en =   0.262791E+02 tol =   0.100000E-03
 Iteration #         27
  pAp =  0.002140192308022338  rzold =  0.001994510856117405  alpha =  0.9319306721368645
 delta_qm =   0.683826E-02 delta_en =   0.315642E+02 tol =   0.100000E-03
 Iteration #         28
  pAp =  0.0032017076571967396  rzold =  0.002872248974844122  alpha =  0.8970990741106339
 delta_qm =   0.869052E-02 delta_en =   0.509794E+02 tol =   0.100000E-03
 Iteration #         29
  pAp =  0.009035586458883643  rzold =  0.004305252762677543  alpha =  0.4764774021330611
 delta_qm =   0.966979E-02 delta_en =   0.631157E+02 tol =   0.100000E-03
 Iteration #         30
  pAp =  0.4172144613550669  rzold =  0.026897237175020072  alpha =  0.06446861186848794
 delta_qm =   0.950167E-02 delta_en =   0.609401E+02 tol =   0.100000E-03
 Iteration #         31
  pAp =  0.004597749939174528  rzold =  0.0035835781576221857  alpha =  0.7794199782569243
 delta_qm =   0.780372E-02 delta_en =   0.411062E+02 tol =   0.100000E-03
 Iteration #         32
  pAp =  0.0033382128915998453  rzold =  0.002550139517961254  alpha =  0.7639235725134039
 delta_qm =   0.650082E-02 delta_en =   0.285260E+02 tol =   0.100000E-03
 Iteration #         33
  pAp =  0.0026199766675896485  rzold =  0.0017968360921481322  alpha =  0.6858214099292735
 delta_qm =   0.528882E-02 delta_en =   0.188808E+02 tol =   0.100000E-03
 Iteration #         34
  pAp =  0.0019411505452563698  rzold =  0.0011856731073799551  alpha =  0.6108094553909841
 delta_qm =   0.445239E-02 delta_en =   0.133810E+02 tol =   0.100000E-03
 Iteration #         35
  pAp =  0.0028111087305890655  rzold =  0.0009801875634792721  alpha =  0.3486836182511783
 delta_qm =   0.363392E-02 delta_en =   0.891364E+01 tol =   0.100000E-03
 Iteration #         36
  pAp =  0.002164534239828647  rzold =  0.0009775433041675687  alpha =  0.45161831408356695
 delta_qm =   0.286050E-02 delta_en =   0.552316E+01 tol =   0.100000E-03
 Iteration #         37
  pAp =  0.0006607970894036896  rzold =  0.0004259351424515662  alpha =  0.6445778125868179
 delta_qm =   0.238664E-02 delta_en =   0.384484E+01 tol =   0.100000E-03
 Iteration #         38
  pAp =  0.009790638706046826  rzold =  0.00046532258799132013  alpha =  0.04752729642693595
 delta_qm =   0.233538E-02 delta_en =   0.368144E+01 tol =   0.100000E-03
 Iteration #         39
  pAp =  0.0008611523319101989  rzold =  0.0003388746414086999  alpha =  0.3935130044379161
 delta_qm =   0.146495E-02 delta_en =   0.144861E+01 tol =   0.100000E-03
 Iteration #         40
  pAp =  0.00010569929329858998  rzold =  0.00007624231699490001  alpha =  0.7213134034824912
 delta_qm =   0.869361E-03 delta_en =   0.510157E+00 tol =   0.100000E-03
 Iteration #         41
  pAp =  0.00004495000695572566  rzold =  0.00003298834301738003  alpha =  0.7338896087351555
 delta_qm =   0.599801E-03 delta_en =   0.242838E+00 tol =   0.100000E-03
 Iteration #         42
  pAp =  0.000023099945740928005  rzold =  0.00001340208512912549  alpha =  0.5801782081842709
 delta_qm =   0.432689E-03 delta_en =   0.126373E+00 tol =   0.100000E-03
 Iteration #         43
  pAp =  0.0006168818317518009  rzold =  0.000029236071968435425  alpha =  0.04739331013431176
 delta_qm =   0.418937E-03 delta_en =   0.118468E+00 tol =   0.100000E-03
 Iteration #         44
  pAp =  0.000016864356175218974  rzold =  0.000008510983569541713  alpha =  0.5046729018951833
 delta_qm =   0.266120E-03 delta_en =   0.478035E-01 tol =   0.100000E-03
 Iteration #         45
  pAp =  0.000004504719478679299  rzold =  0.000003118812878181627  alpha =  0.6923434173743501
 delta_qm =   0.179567E-03 delta_en =   0.217649E-01 tol =   0.100000E-03
 Iteration #         46
  pAp =  0.000002265343712325322  rzold =  0.0000014073325881542933  alpha =  0.6212446175373977
 delta_qm =   0.118024E-03 delta_en =   0.940249E-02 tol =   0.100000E-03
 Iteration #         47
  pAp =  0.0000010699736072554264  rzold =  5.428351932272664E-7  alpha =  0.5073351244800187
 delta_qm =   0.777013E-04 delta_en =   0.407531E-02 tol =   0.100000E-03
 Iteration #         48
  pAp =  0.000001239935752050268  rzold =  4.1046731362005256E-7  alpha =  0.33103917920048154
 delta_qm =   0.548251E-04 delta_en =   0.202891E-02 tol =   0.100000E-03
 Iteration #         49
  pAp =  0.0000012373736999803758  rzold =  1.8138380450951412E-7  alpha =  0.14658773215592896
 delta_qm =   0.495772E-04 delta_en =   0.165908E-02 tol =   0.100000E-03
 Iteration #         50
  pAp =  0.000005734661723356993  rzold =  6.343982751142024E-7  alpha =  0.1106252305223741
 delta_qm =   0.394438E-04 delta_en =   0.105017E-02 tol =   0.100000E-03
 Iteration #         51
  pAp =  7.353390880844758E-8  rzold =  5.3622583113775007E-8  alpha =  0.729222531246902
 delta_qm =   0.254757E-04 delta_en =   0.438082E-03 tol =   0.100000E-03
 Iteration #         52
  pAp =  2.6471742508189898E-8  rzold =  2.0270666751942285E-8  alpha =  0.765747352886607
 delta_qm =   0.140956E-04 delta_en =   0.134112E-03 tol =   0.100000E-03
 Iteration #         53
  pAp =  1.437814797945128E-8  rzold =  9.339591408801954E-9  alpha =  0.6495684577839757
 delta_qm =   0.979936E-05 delta_en =   0.648186E-04 tol =   0.100000E-03
 Charges are converged, exit!

%%%% ELECTRONS %%%%%%%%%%%%%%%%%%%%%%%%%%%%%%%%%%%%%%%%%%%%%%%%%%%%%%%%%%%%%%%%%
 number of electrons        =         89
 total electronic charge    =     89.0000000
 number of spin components  =  1

%%%% BOUNDARY %%%%%%%%%%%%%%%%%%%%%%%%%%%%%%%%%%%%%%%%%%%%%%%%%%%%%%%%%%%%%%%%%%
 boundary mode              = electronic           
 boundary is built as a function of a smooth density
 function type              =  2 
 using the modified SCCS function with parameters 
 rhomax                     =      0.0050000 
 rhomin                     =      0.0001000 

%%%% DIELECTRIC %%%%%%%%%%%%%%%%%%%%%%%%%%%%%%%%%%%%%%%%%%%%%%%%%%%%%%%%%%%%%%%%%
 dielectric build on homogeneous background
 environment bulk permitt.  =    100.0000000 
 dielectric flags
 need gradient              =  F 
 need factor depend. sqrt   =  T 
 need gradient of logarithm =  T 

%%%% COMPUTE ELECTROSTATIC POTENTIAL %%%%%%%%%%%%%%%%%%%%%%%%%%%%%%%%%%%%%%%%%%%
 Warning: bad guess with residual norm =   0.892629E+06, reset to no guess
 Iteration #          1
  pAp =  1287.9213883336201  rzold =  1272.001383743476  alpha =  0.9876389935485563
 delta_qm =   0.227420E+00 delta_en =   0.349109E+05 tol =   0.100000E-03
 Iteration #          2
  pAp =  14102.911238544913  rzold =  449.28704620499667  alpha =  0.03185775182198144
 delta_qm =   0.526665E-01 delta_en =   0.187229E+04 tol =   0.100000E-03
 Iteration #          3
  pAp =  482.1844446166008  rzold =  18.056267749201954  alpha =  0.03744680682007283
 delta_qm =   0.317945E-01 delta_en =   0.682351E+03 tol =   0.100000E-03
 Iteration #          4
  pAp =  6.70954209899161  rzold =  0.9022281750225138  alpha =  0.1344694111328568
 delta_qm =   0.168506E-01 delta_en =   0.191661E+03 tol =   0.100000E-03
 Iteration #          5
  pAp =  0.13428420485292292  rzold =  0.0442463799007946  alpha =  0.3294980221185076
 delta_qm =   0.111645E-01 delta_en =   0.841361E+02 tol =   0.100000E-03
 Iteration #          6
  pAp =  0.04078225282176203  rzold =  0.018037531991185015  alpha =  0.4422887590349083
 delta_qm =   0.733589E-02 delta_en =   0.363253E+02 tol =   0.100000E-03
 Iteration #          7
  pAp =  0.022507667828802518  rzold =  0.011470347369868728  alpha =  0.509619541976286
 delta_qm =   0.472971E-02 delta_en =   0.150999E+02 tol =   0.100000E-03
 Iteration #          8
  pAp =  0.019037142409987776  rzold =  0.010035929017994131  alpha =  0.5271762327485039
 delta_qm =   0.422528E-02 delta_en =   0.120507E+02 tol =   0.100000E-03
 Iteration #          9
  pAp =  0.00703461838771185  rzold =  0.004101392003062693  alpha =  0.583029778875717
 delta_qm =   0.386075E-02 delta_en =   0.100611E+02 tol =   0.100000E-03
 Iteration #         10
  pAp =  0.004570772775379935  rzold =  0.002068210350635729  alpha =  0.4524859257445397
 delta_qm =   0.347391E-02 delta_en =   0.814593E+01 tol =   0.100000E-03
 Iteration #         11
  pAp =  0.0021437840931394364  rzold =  0.001350275754655429  alpha =  0.6298562243168973
 delta_qm =   0.278782E-02 delta_en =   0.524605E+01 tol =   0.100000E-03
 Iteration #         12
  pAp =  0.0023631009272474923  rzold =  0.0014522744927137322  alpha =  0.6145630412854697
 delta_qm =   0.254856E-02 delta_en =   0.438423E+01 tol =   0.100000E-03
 Iteration #         13
  pAp =  0.018023471963245934  rzold =  0.0013616151066548092  alpha =  0.07554677086809135
 delta_qm =   0.231399E-02 delta_en =   0.361432E+01 tol =   0.100000E-03
 Iteration #         14
  pAp =  0.009552242107600544  rzold =  0.0020703766634804707  alpha =  0.2167424820433634
 delta_qm =   0.198396E-02 delta_en =   0.265688E+01 tol =   0.100000E-03
 Iteration #         15
  pAp =  0.0006261333724392095  rzold =  0.0003537759804733234  alpha =  0.5650169693002125
 delta_qm =   0.123128E-02 delta_en =   0.102334E+01 tol =   0.100000E-03
 Iteration #         16
  pAp =  0.00317472142827058  rzold =  0.0002821334920264646  alpha =  0.08886873963620674
 delta_qm =   0.100282E-02 delta_en =   0.678818E+00 tol =   0.100000E-03
 Iteration #         17
  pAp =  0.0008415605686346526  rzold =  0.00027679254062060676  alpha =  0.3289038851590621
 delta_qm =   0.629811E-03 delta_en =   0.267747E+00 tol =   0.100000E-03
 Iteration #         18
  pAp =  0.00013512228429564226  rzold =  0.00007831536537158918  alpha =  0.5795888204512457
 delta_qm =   0.582585E-03 delta_en =   0.229098E+00 tol =   0.100000E-03
 Iteration #         19
  pAp =  0.000031658744572263045  rzold =  0.000028718505797452334  alpha =  0.9071271203411293
 delta_qm =   0.445268E-03 delta_en =   0.133828E+00 tol =   0.100000E-03
 Iteration #         20
  pAp =  0.00004781827916360943  rzold =  0.00003247169701802393  alpha =  0.6790645248216183
 delta_qm =   0.456809E-03 delta_en =   0.140855E+00 tol =   0.100000E-03
 Iteration #         21
  pAp =  0.000029900799027552363  rzold =  0.00002983342536383077  alpha =  0.9977467604240439
 delta_qm =   0.597964E-03 delta_en =   0.241353E+00 tol =   0.100000E-03
 Iteration #         22
  pAp =  0.00004478856808406251  rzold =  0.00003877414569306625  alpha =  0.865715233858159
 delta_qm =   0.570709E-03 delta_en =   0.219854E+00 tol =   0.100000E-03
 Iteration #         23
  pAp =  0.000031555657367716195  rzold =  0.000028525615735580526  alpha =  0.9039778637210192
 delta_qm =   0.349758E-03 delta_en =   0.825730E-01 tol =   0.100000E-03
 Iteration #         24
  pAp =  0.0013506717925563432  rzold =  0.00005993280751012911  alpha =  0.044372591358184464
 delta_qm =   0.349457E-03 delta_en =   0.824309E-01 tol =   0.100000E-03
 Iteration #         25
  pAp =  0.00008026501123073384  rzold =  0.00003168133384511747  alpha =  0.39470914361482756
 delta_qm =   0.273615E-03 delta_en =   0.505340E-01 tol =   0.100000E-03
 Iteration #         26
  pAp =  0.000016845508510873667  rzold =  0.000009719801543233387  alpha =  0.5769966241719161
 delta_qm =   0.177115E-03 delta_en =   0.211746E-01 tol =   0.100000E-03
 Iteration #         27
  pAp =  0.000006790313941539317  rzold =  0.000003272878164453039  alpha =  0.48199217188345495
 delta_qm =   0.104434E-03 delta_en =   0.736180E-02 tol =   0.100000E-03
 Iteration #         28
  pAp =  0.000005706007945438811  rzold =  0.0000012661737549797091  alpha =  0.22190185626920578
 delta_qm =   0.877394E-04 delta_en =   0.519629E-02 tol =   0.100000E-03
 Iteration #         29
  pAp =  0.000030335746316365072  rzold =  0.000003628782218171701  alpha =  0.1196206673252044
 delta_qm =   0.530627E-04 delta_en =   0.190056E-02 tol =   0.100000E-03
 Iteration #         30
  pAp =  7.771653044114928E-7  rzold =  4.0686321082332675E-7  alpha =  0.5235220982123272
 delta_qm =   0.329296E-04 delta_en =   0.731941E-03 tol =   0.100000E-03
 Iteration #         31
  pAp =  3.509694159672439E-7  rzold =  1.488504553676615E-7  alpha =  0.42411232601975146
 delta_qm =   0.242324E-04 delta_en =   0.396367E-03 tol =   0.100000E-03
 Iteration #         32
  pAp =  4.398140433361244E-7  rzold =  1.0345456845323898E-7  alpha =  0.23522343140410967
 delta_qm =   0.175279E-04 delta_en =   0.207378E-03 tol =   0.100000E-03
 Iteration #         33
  pAp =  4.022286681205559E-8  rzold =  2.68094926895159E-8  alpha =  0.6665236671166503
 delta_qm =   0.834624E-05 delta_en =   0.470204E-04 tol =   0.100000E-03
 Charges are converged, exit!

%%%% ELECTRONS %%%%%%%%%%%%%%%%%%%%%%%%%%%%%%%%%%%%%%%%%%%%%%%%%%%%%%%%%%%%%%%%%
 number of electrons        =         89
 total electronic charge    =     89.0000000
 number of spin components  =  1

%%%% BOUNDARY %%%%%%%%%%%%%%%%%%%%%%%%%%%%%%%%%%%%%%%%%%%%%%%%%%%%%%%%%%%%%%%%%%
 boundary mode              = electronic           
 boundary is built as a function of a smooth density
 function type              =  2 
 using the modified SCCS function with parameters 
 rhomax                     =      0.0050000 
 rhomin                     =      0.0001000 

%%%% DIELECTRIC %%%%%%%%%%%%%%%%%%%%%%%%%%%%%%%%%%%%%%%%%%%%%%%%%%%%%%%%%%%%%%%%%
 dielectric build on homogeneous background
 environment bulk permitt.  =    100.0000000 
 dielectric flags
 need gradient              =  F 
 need factor depend. sqrt   =  T 
 need gradient of logarithm =  T 

%%%% COMPUTE ELECTROSTATIC POTENTIAL %%%%%%%%%%%%%%%%%%%%%%%%%%%%%%%%%%%%%%%%%%%
 Warning: bad guess with residual norm =   0.906397E+06, reset to no guess
 Iteration #          1
  pAp =  1287.9396199724663  rzold =  1270.5830891710852  alpha =  0.9865238008581861
 delta_qm =   0.286308E+00 delta_en =   0.553313E+05 tol =   0.100000E-03
 Iteration #          2
  pAp =  17721.438029195524  rzold =  527.414740039902  alpha =  0.02976139629137333
 delta_qm =   0.630771E-01 delta_en =   0.268563E+04 tol =   0.100000E-03
 Iteration #          3
  pAp =  550.9306958866672  rzold =  19.478183225015687  alpha =  0.03535505167971722
 delta_qm =   0.402133E-01 delta_en =   0.109155E+04 tol =   0.100000E-03
 Iteration #          4
  pAp =  7.461108850034745  rzold =  0.9484595268904815  alpha =  0.12712045165861166
 delta_qm =   0.227177E-01 delta_en =   0.348363E+03 tol =   0.100000E-03
 Iteration #          5
  pAp =  0.14590911408734653  rzold =  0.04657021535491869  alpha =  0.3191727648146781
 delta_qm =   0.143735E-01 delta_en =   0.139454E+03 tol =   0.100000E-03
 Iteration #          6
  pAp =  0.04826891040845404  rzold =  0.020383027679767  alpha =  0.4222806669403713
 delta_qm =   0.974544E-02 delta_en =   0.641072E+02 tol =   0.100000E-03
 Iteration #          7
  pAp =  0.02418287403424268  rzold =  0.013545332414175132  alpha =  0.5601208688014125
 delta_qm =   0.649686E-02 delta_en =   0.284912E+02 tol =   0.100000E-03
 Iteration #          8
  pAp =  0.024624668692048237  rzold =  0.013988825018838465  alpha =  0.5680817554859415
 delta_qm =   0.700556E-02 delta_en =   0.331275E+02 tol =   0.100000E-03
 Iteration #          9
  pAp =  0.013678796291132231  rzold =  0.007948333336689994  alpha =  0.5810696473228997
 delta_qm =   0.705351E-02 delta_en =   0.335826E+02 tol =   0.100000E-03
 Iteration #         10
  pAp =  0.012006878838956129  rzold =  0.005350800284587148  alpha =  0.4456445639500052
 delta_qm =   0.657209E-02 delta_en =   0.291548E+02 tol =   0.100000E-03
 Iteration #         11
  pAp =  0.00489296741639725  rzold =  0.0036590776522755202  alpha =  0.7478238338586245
 delta_qm =   0.569516E-02 delta_en =   0.218935E+02 tol =   0.100000E-03
 Iteration #         12
  pAp =  0.00768274646752777  rzold =  0.005040614637082546  alpha =  0.6560954026515683
 delta_qm =   0.604754E-02 delta_en =   0.246866E+02 tol =   0.100000E-03
 Iteration #         13
  pAp =  0.010671847037922453  rzold =  0.004077257425823444  alpha =  0.3820573337806373
 delta_qm =   0.561384E-02 delta_en =   0.212728E+02 tol =   0.100000E-03
 Iteration #         14
  pAp =  0.4851303763814756  rzold =  0.020745415574573826  alpha =  0.042762557416649895
 delta_qm =   0.536255E-02 delta_en =   0.194109E+02 tol =   0.100000E-03
 Iteration #         15
  pAp =  0.003102180913996958  rzold =  0.0018637202248790868  alpha =  0.6007774132288773
 delta_qm =   0.309801E-02 delta_en =   0.647840E+01 tol =   0.100000E-03
 Iteration #         16
  pAp =  0.001986632120827526  rzold =  0.000951201732767473  alpha =  0.47880114430609966
 delta_qm =   0.205539E-02 delta_en =   0.285163E+01 tol =   0.100000E-03
 Iteration #         17
  pAp =  0.04914221664868103  rzold =  0.0028530523683275443  alpha =  0.05805705486840549
 delta_qm =   0.156807E-02 delta_en =   0.165971E+01 tol =   0.100000E-03
 Iteration #         18
  pAp =  0.0010807324429620711  rzold =  0.0004739302603207952  alpha =  0.43852691145446443
 delta_qm =   0.137363E-02 delta_en =   0.127363E+01 tol =   0.100000E-03
 Iteration #         19
  pAp =  0.00020036544046995983  rzold =  0.00012845646155885737  alpha =  0.6411108685088657
 delta_qm =   0.823254E-03 delta_en =   0.457479E+00 tol =   0.100000E-03
 Iteration #         20
  pAp =  0.0001328659032442233  rzold =  0.00006669928051065261  alpha =  0.5020044938696681
 delta_qm =   0.559649E-03 delta_en =   0.211415E+00 tol =   0.100000E-03
 Iteration #         21
  pAp =  0.00004520322081821848  rzold =  0.00003520411254234397  alpha =  0.7787965526597052
 delta_qm =   0.556401E-03 delta_en =   0.208968E+00 tol =   0.100000E-03
 Iteration #         22
  pAp =  0.000037478845241224325  rzold =  0.00003188561400431049  alpha =  0.850762978397167
 delta_qm =   0.678117E-03 delta_en =   0.310394E+00 tol =   0.100000E-03
 Iteration #         23
  pAp =  0.00002589229154234042  rzold =  0.00003147540530787189  alpha =  1.2156284142097533
 delta_qm =   0.724433E-03 delta_en =   0.354242E+00 tol =   0.100000E-03
 Iteration #         24
  pAp =  0.00008681096860339267  rzold =  0.00006200500752025426  alpha =  0.7142531470133952
 delta_qm =   0.944411E-03 delta_en =   0.602040E+00 tol =   0.100000E-03
 Iteration #         25
  pAp =  0.013106881261852289  rzold =  0.000600206543047215  alpha =  0.045793238761849646
 delta_qm =   0.107069E-02 delta_en =   0.773811E+00 tol =   0.100000E-03
 Iteration #         26
  pAp =  0.00012824418183934527  rzold =  0.0001326788390810091  alpha =  1.0345797928456453
 delta_qm =   0.152152E-02 delta_en =   0.156265E+01 tol =   0.100000E-03
 Iteration #         27
  pAp =  0.00019209844127881666  rzold =  0.00016132378790165126  alpha =  0.8397974852253055
 delta_qm =   0.138345E-02 delta_en =   0.129190E+01 tol =   0.100000E-03
 Iteration #         28
  pAp =  0.0001848354716297158  rzold =  0.00014751557117375632  alpha =  0.798091242298323
 delta_qm =   0.100428E-02 delta_en =   0.680795E+00 tol =   0.100000E-03
 Iteration #         29
  pAp =  0.0003472447224989068  rzold =  0.00012423525507375668  alpha =  0.35777435054941054
 delta_qm =   0.861698E-03 delta_en =   0.501203E+00 tol =   0.100000E-03
 Iteration #         30
  pAp =  0.0060999531155210346  rzold =  0.0004601867671066289  alpha =  0.07544103346232384
 delta_qm =   0.809128E-03 delta_en =   0.441914E+00 tol =   0.100000E-03
 Iteration #         31
  pAp =  0.00018689704543596046  rzold =  0.00008377087706076765  alpha =  0.448219375888804
 delta_qm =   0.710664E-03 delta_en =   0.340905E+00 tol =   0.100000E-03
 Iteration #         32
  pAp =  0.00012532014939638198  rzold =  0.000039308910581879386  alpha =  0.31366791989328924
 delta_qm =   0.537733E-03 delta_en =   0.195181E+00 tol =   0.100000E-03
 Iteration #         33
  pAp =  0.00008612121481139096  rzold =  0.00003384854252601333  alpha =  0.3930337327468388
 delta_qm =   0.316194E-03 delta_en =   0.674855E-01 tol =   0.100000E-03
 Iteration #         34
  pAp =  0.000015692993225401645  rzold =  0.000010043927139760263  alpha =  0.6400262203326861
 delta_qm =   0.216014E-03 delta_en =   0.314969E-01 tol =   0.100000E-03
 Iteration #         35
  pAp =  0.000006838773016385595  rzold =  0.000003923690949884278  alpha =  0.5737419476393171
 delta_qm =   0.151232E-03 delta_en =   0.154380E-01 tol =   0.100000E-03
 Iteration #         36
  pAp =  0.000021616288995535345  rzold =  0.00000195351266943071  alpha =  0.09037224982670203
 delta_qm =   0.137586E-03 delta_en =   0.127777E-01 tol =   0.100000E-03
 Iteration #         37
  pAp =  0.00002478534298449006  rzold =  0.000004134471949363419  alpha =  0.1668111654517208
 delta_qm =   0.803272E-04 delta_en =   0.435541E-02 tol =   0.100000E-03
 Iteration #         38
  pAp =  8.428411671068335E-7  rzold =  4.786541533294704E-7  alpha =  0.5679055224278089
 delta_qm =   0.438704E-04 delta_en =   0.129911E-02 tol =   0.100000E-03
 Iteration #         39
  pAp =  2.925967013792529E-7  rzold =  1.7837464329100263E-7  alpha =  0.6096262960251219
 delta_qm =   0.265633E-04 delta_en =   0.476287E-03 tol =   0.100000E-03
 Iteration #         40
  pAp =  9.8349091484002E-8  rzold =  5.151575356829691E-8  alpha =  0.5238050783283213
 delta_qm =   0.160231E-04 delta_en =   0.173299E-03 tol =   0.100000E-03
 Iteration #         41
  pAp =  2.9035031749816605E-8  rzold =  1.6910366888479627E-8  alpha =  0.5824125502665048
 delta_qm =   0.780983E-05 delta_en =   0.411706E-04 tol =   0.100000E-03
 Charges are converged, exit!

%%%% ELECTRONS %%%%%%%%%%%%%%%%%%%%%%%%%%%%%%%%%%%%%%%%%%%%%%%%%%%%%%%%%%%%%%%%%
 number of electrons        =         89
 total electronic charge    =     89.0000000
 number of spin components  =  1

%%%% BOUNDARY %%%%%%%%%%%%%%%%%%%%%%%%%%%%%%%%%%%%%%%%%%%%%%%%%%%%%%%%%%%%%%%%%%
 boundary mode              = electronic           
 boundary is built as a function of a smooth density
 function type              =  2 
 using the modified SCCS function with parameters 
 rhomax                     =      0.0050000 
 rhomin                     =      0.0001000 

%%%% DIELECTRIC %%%%%%%%%%%%%%%%%%%%%%%%%%%%%%%%%%%%%%%%%%%%%%%%%%%%%%%%%%%%%%%%%
 dielectric build on homogeneous background
 environment bulk permitt.  =    100.0000000 
 dielectric flags
 need gradient              =  F 
 need factor depend. sqrt   =  T 
 need gradient of logarithm =  T 

%%%% COMPUTE ELECTROSTATIC POTENTIAL %%%%%%%%%%%%%%%%%%%%%%%%%%%%%%%%%%%%%%%%%%%
 Warning: bad guess with residual norm =   0.659149E+06, reset to no guess
 Iteration #          1
  pAp =  1287.6265478790062  rzold =  1269.5080122794925  alpha =  0.9859287340499784
 delta_qm =   0.214737E+00 delta_en =   0.311257E+05 tol =   0.100000E-03
 Iteration #          2
  pAp =  19075.47925502224  rzold =  559.1012362952116  alpha =  0.02930994439618129
 delta_qm =   0.508150E-01 delta_en =   0.174296E+04 tol =   0.100000E-03
 Iteration #          3
  pAp =  625.3247311066633  rzold =  21.45943800337256  alpha =  0.034317270588986454
 delta_qm =   0.274364E-01 delta_en =   0.508112E+03 tol =   0.100000E-03
 Iteration #          4
  pAp =  7.245427438021024  rzold =  0.9042741291548414  alpha =  0.12480618112460592
 delta_qm =   0.150014E-01 delta_en =   0.151903E+03 tol =   0.100000E-03
 Iteration #          5
  pAp =  0.15569260129637458  rzold =  0.04622636327623068  alpha =  0.2969078998701725
 delta_qm =   0.102228E-01 delta_en =   0.705419E+02 tol =   0.100000E-03
 Iteration #          6
  pAp =  0.04742887344804339  rzold =  0.019354683500585997  alpha =  0.40807807762476905
 delta_qm =   0.715353E-02 delta_en =   0.345418E+02 tol =   0.100000E-03
 Iteration #          7
  pAp =  0.021530936502416727  rzold =  0.011705816274404625  alpha =  0.5436742741352989
 delta_qm =   0.448624E-02 delta_en =   0.135853E+02 tol =   0.100000E-03
 Iteration #          8
  pAp =  0.02129185953159434  rzold =  0.010903918285803362  alpha =  0.5121167678954189
 delta_qm =   0.396258E-02 delta_en =   0.105989E+02 tol =   0.100000E-03
 Iteration #          9
  pAp =  0.009199221503146936  rzold =  0.005165041783509437  alpha =  0.5614650959043156
 delta_qm =   0.383298E-02 delta_en =   0.991691E+01 tol =   0.100000E-03
 Iteration #         10
  pAp =  0.007059274986646355  rzold =  0.0030299492931818417  alpha =  0.42921536544665445
 delta_qm =   0.355662E-02 delta_en =   0.853844E+01 tol =   0.100000E-03
 Iteration #         11
  pAp =  0.002836063998226253  rzold =  0.0018577546015404681  alpha =  0.655046784100202
 delta_qm =   0.303016E-02 delta_en =   0.619774E+01 tol =   0.100000E-03
 Iteration #         12
  pAp =  0.0031846669837857183  rzold =  0.0020799582175048403  alpha =  0.653116394302655
 delta_qm =   0.286159E-02 delta_en =   0.552737E+01 tol =   0.100000E-03
 Iteration #         13
  pAp =  0.012674934732789014  rzold =  0.0019990682206828874  alpha =  0.157718225996972
 delta_qm =   0.255729E-02 delta_en =   0.441434E+01 tol =   0.100000E-03
 Iteration #         14
  pAp =  0.0827153220587302  rzold =  0.007547508643401637  alpha =  0.09124680235232228
 delta_qm =   0.253244E-02 delta_en =   0.432896E+01 tol =   0.100000E-03
 Iteration #         15
  pAp =  0.0013134653897186575  rzold =  0.0007271212480448739  alpha =  0.5535899565656787
 delta_qm =   0.168142E-02 delta_en =   0.190835E+01 tol =   0.100000E-03
 Iteration #         16
  pAp =  0.0043157154265133935  rzold =  0.00047496101130385594  alpha =  0.11005382986699157
 delta_qm =   0.143713E-02 delta_en =   0.139411E+01 tol =   0.100000E-03
 Iteration #         17
  pAp =  0.00309840331942212  rzold =  0.0007578892396145641  alpha =  0.2446063864132179
 delta_qm =   0.769244E-03 delta_en =   0.399422E+00 tol =   0.100000E-03
 Iteration #         18
  pAp =  0.0004090311217531573  rzold =  0.00018396770943569657  alpha =  0.4497645769524542
 delta_qm =   0.640364E-03 delta_en =   0.276794E+00 tol =   0.100000E-03
 Iteration #         19
  pAp =  0.00009383814124784764  rzold =  0.000055167485997039225  alpha =  0.5879004556508582
 delta_qm =   0.464783E-03 delta_en =   0.145816E+00 tol =   0.100000E-03
 Iteration #         20
  pAp =  0.000052808204673444676  rzold =  0.00002678403905782687  alpha =  0.5071946532447749
 delta_qm =   0.308640E-03 delta_en =   0.642994E-01 tol =   0.100000E-03
 Iteration #         21
  pAp =  0.000019990351089450996  rzold =  0.000014802127220979147  alpha =  0.7404635943983146
 delta_qm =   0.259866E-03 delta_en =   0.455831E-01 tol =   0.100000E-03
 Iteration #         22
  pAp =  0.000014292812894956887  rzold =  0.000011059906683237  alpha =  0.7738089601060548
 delta_qm =   0.310232E-03 delta_en =   0.649647E-01 tol =   0.100000E-03
 Iteration #         23
  pAp =  0.000009363689055083596  rzold =  0.000010099281178518465  alpha =  1.0785579400498688
 delta_qm =   0.274707E-03 delta_en =   0.509381E-01 tol =   0.100000E-03
 Iteration #         24
  pAp =  0.00010570130585569556  rzold =  0.000016834313365367592  alpha =  0.15926305951555564
 delta_qm =   0.292840E-03 delta_en =   0.578846E-01 tol =   0.100000E-03
 Iteration #         25
  pAp =  0.00046468336340255975  rzold =  0.0000750271033805188  alpha =  0.16145855283293645
 delta_qm =   0.330868E-03 delta_en =   0.738948E-01 tol =   0.100000E-03
 Iteration #         26
  pAp =  0.00002569069703534551  rzold =  0.00002087311894652623  alpha =  0.8124777197679297
 delta_qm =   0.371418E-03 delta_en =   0.931172E-01 tol =   0.100000E-03
 Iteration #         27
  pAp =  0.000027132787919675916  rzold =  0.000017748087439328483  alpha =  0.65411956529753
 delta_qm =   0.282270E-03 delta_en =   0.537815E-01 tol =   0.100000E-03
 Iteration #         28
  pAp =  0.00003054163793867318  rzold =  0.000010272170523807678  alpha =  0.3363333212329323
 delta_qm =   0.224311E-03 delta_en =   0.339628E-01 tol =   0.100000E-03
 Iteration #         29
  pAp =  0.0004991187108274901  rzold =  0.000034147001870809426  alpha =  0.06841458981611215
 delta_qm =   0.165203E-03 delta_en =   0.184220E-01 tol =   0.100000E-03
 Iteration #         30
  pAp =  0.000005958578083610346  rzold =  0.0000037393257034011634  alpha =  0.627553361042049
 delta_qm =   0.997046E-04 delta_en =   0.671017E-02 tol =   0.100000E-03
 Iteration #         31
  pAp =  0.000004606339397644014  rzold =  0.0000019758798865850576  alpha =  0.42894795976077077
 delta_qm =   0.751278E-04 delta_en =   0.380983E-02 tol =   0.100000E-03
 Iteration #         32
  pAp =  0.000001522588257779507  rzold =  6.969219072223866E-7  alpha =  0.45772184545725764
 delta_qm =   0.516530E-04 delta_en =   0.180092E-02 tol =   0.100000E-03
 Iteration #         33
  pAp =  0.0000018199832502871526  rzold =  4.1666864928699097E-7  alpha =  0.2289409252646968
 delta_qm =   0.371228E-04 delta_en =   0.930219E-03 tol =   0.100000E-03
 Iteration #         34
  pAp =  4.198862744110026E-7  rzold =  1.891543225684014E-7  alpha =  0.4504894160537601
 delta_qm =   0.192950E-04 delta_en =   0.251299E-03 tol =   0.100000E-03
 Iteration #         35
  pAp =  1.3887692442978989E-7  rzold =  6.631186730211806E-8  alpha =  0.4774865772293398
 delta_qm =   0.124665E-04 delta_en =   0.104904E-03 tol =   0.100000E-03
 Iteration #         36
  pAp =  0.000003353924109228016  rzold =  1.1016031138788608E-7  alpha =  0.03284520096468195
 delta_qm =   0.118693E-04 delta_en =   0.950937E-04 tol =   0.100000E-03
 Charges are converged, exit!

%%%% ELECTRONS %%%%%%%%%%%%%%%%%%%%%%%%%%%%%%%%%%%%%%%%%%%%%%%%%%%%%%%%%%%%%%%%%
 number of electrons        =         89
 total electronic charge    =     89.0000000
 number of spin components  =  1

%%%% BOUNDARY %%%%%%%%%%%%%%%%%%%%%%%%%%%%%%%%%%%%%%%%%%%%%%%%%%%%%%%%%%%%%%%%%%
 boundary mode              = electronic           
 boundary is built as a function of a smooth density
 function type              =  2 
 using the modified SCCS function with parameters 
 rhomax                     =      0.0050000 
 rhomin                     =      0.0001000 

%%%% DIELECTRIC %%%%%%%%%%%%%%%%%%%%%%%%%%%%%%%%%%%%%%%%%%%%%%%%%%%%%%%%%%%%%%%%%
 dielectric build on homogeneous background
 environment bulk permitt.  =    100.0000000 
 dielectric flags
 need gradient              =  F 
 need factor depend. sqrt   =  T 
 need gradient of logarithm =  T 

%%%% COMPUTE ELECTROSTATIC POTENTIAL %%%%%%%%%%%%%%%%%%%%%%%%%%%%%%%%%%%%%%%%%%%
 Warning: bad guess with residual norm =   0.657407E+06, reset to no guess
 Iteration #          1
  pAp =  1288.9496840974482  rzold =  1269.2376766694974  alpha =  0.9847069224880151
 delta_qm =   0.208848E+00 delta_en =   0.294418E+05 tol =   0.100000E-03
 Iteration #          2
  pAp =  23079.363402216546  rzold =  642.685774316365  alpha =  0.027846772162469672
 delta_qm =   0.488550E-01 delta_en =   0.161110E+04 tol =   0.100000E-03
 Iteration #          3
  pAp =  695.726781918522  rzold =  22.86365534814109  alpha =  0.0328629800409476
 delta_qm =   0.260771E-01 delta_en =   0.459010E+03 tol =   0.100000E-03
 Iteration #          4
  pAp =  8.413471137030449  rzold =  0.9987649166575574  alpha =  0.11871020894832159
 delta_qm =   0.144114E-01 delta_en =   0.140190E+03 tol =   0.100000E-03
 Iteration #          5
  pAp =  0.20328741959903399  rzold =  0.054288943426139456  alpha =  0.26705510618030115
 delta_qm =   0.986949E-02 delta_en =   0.657496E+02 tol =   0.100000E-03
 Iteration #          6
  pAp =  0.05301382506985406  rzold =  0.02070648130220491  alpha =  0.3905864418370276
 delta_qm =   0.697982E-02 delta_en =   0.328846E+02 tol =   0.100000E-03
 Iteration #          7
  pAp =  0.02107156212373704  rzold =  0.01177610389244224  alpha =  0.5588624053257305
 delta_qm =   0.427750E-02 delta_en =   0.123505E+02 tol =   0.100000E-03
 Iteration #          8
  pAp =  0.02174040016384335  rzold =  0.01074454334981629  alpha =  0.494220127911244
 delta_qm =   0.358309E-02 delta_en =   0.866601E+01 tol =   0.100000E-03
 Iteration #          9
  pAp =  0.009462067790259222  rzold =  0.005208836904551328  alpha =  0.5504966800083163
 delta_qm =   0.346230E-02 delta_en =   0.809159E+01 tol =   0.100000E-03
 Iteration #         10
  pAp =  0.007078358712706634  rzold =  0.003006846834666188  alpha =  0.42479435653190073
 delta_qm =   0.330440E-02 delta_en =   0.737038E+01 tol =   0.100000E-03
 Iteration #         11
  pAp =  0.0027076294324709814  rzold =  0.001764061088175281  alpha =  0.6515149625055596
 delta_qm =   0.278508E-02 delta_en =   0.523576E+01 tol =   0.100000E-03
 Iteration #         12
  pAp =  0.002831107720439059  rzold =  0.0019202769677624327  alpha =  0.6782776062878416
 delta_qm =   0.257137E-02 delta_en =   0.446307E+01 tol =   0.100000E-03
 Iteration #         13
  pAp =  0.0045258420097975096  rzold =  0.001918690165693487  alpha =  0.4239410393778485
 delta_qm =   0.236305E-02 delta_en =   0.376921E+01 tol =   0.100000E-03
 Iteration #         14
  pAp =  0.17068553300203748  rzold =  0.005749624067872336  alpha =  0.03368547976355853
 delta_qm =   0.246918E-02 delta_en =   0.411537E+01 tol =   0.100000E-03
 Iteration #         15
  pAp =  0.0021705331983862134  rzold =  0.0010072152916738833  alpha =  0.46404049125935765
 delta_qm =   0.185981E-02 delta_en =   0.233475E+01 tol =   0.100000E-03
 Iteration #         16
  pAp =  0.0008882197400368748  rzold =  0.0004451421726192098  alpha =  0.5011622153328067
 delta_qm =   0.128201E-02 delta_en =   0.110940E+01 tol =   0.100000E-03
 Iteration #         17
  pAp =  0.029099067804215836  rzold =  0.0016391004133960952  alpha =  0.05632827911960205
 delta_qm =   0.923329E-03 delta_en =   0.575462E+00 tol =   0.100000E-03
 Iteration #         18
  pAp =  0.0006482358022501028  rzold =  0.00030861888223466  alpha =  0.47609046147005074
 delta_qm =   0.787327E-03 delta_en =   0.418422E+00 tol =   0.100000E-03
 Iteration #         19
  pAp =  0.00020281396099689768  rzold =  0.00011695822868123228  alpha =  0.5766774047819189
 delta_qm =   0.698030E-03 delta_en =   0.328891E+00 tol =   0.100000E-03
 Iteration #         20
  pAp =  0.00011292109242386373  rzold =  0.00006616146365504461  alpha =  0.5859088168107612
 delta_qm =   0.526730E-03 delta_en =   0.187275E+00 tol =   0.100000E-03
 Iteration #         21
  pAp =  0.00006898088172027304  rzold =  0.000059690043547444675  alpha =  0.865312852762538
 delta_qm =   0.588135E-03 delta_en =   0.233484E+00 tol =   0.100000E-03
 Iteration #         22
  pAp =  0.0000804010531181385  rzold =  0.00006565529036982228  alpha =  0.8165973929887547
 delta_qm =   0.792390E-03 delta_en =   0.423820E+00 tol =   0.100000E-03
 Iteration #         23
  pAp =  0.00008714297720220927  rzold =  0.0000708954904035058  alpha =  0.8135536870515417
 delta_qm =   0.696251E-03 delta_en =   0.327217E+00 tol =   0.100000E-03
 Iteration #         24
  pAp =  0.00010191753936516651  rzold =  0.00007574947074170654  alpha =  0.7432427353872741
 delta_qm =   0.531893E-03 delta_en =   0.190964E+00 tol =   0.100000E-03
 Iteration #         25
  pAp =  0.0002051270412601945  rzold =  0.00007136933305548495  alpha =  0.3479274727360599
 delta_qm =   0.478853E-03 delta_en =   0.154777E+00 tol =   0.100000E-03
 Iteration #         26
  pAp =  0.009329176712168681  rzold =  0.00042445218192595143  alpha =  0.04549728180969168
 delta_qm =   0.504939E-03 delta_en =   0.172100E+00 tol =   0.100000E-03
 Iteration #         27
  pAp =  0.00007863357097468869  rzold =  0.000043465055529317755  alpha =  0.5527544405087325
 delta_qm =   0.390227E-03 delta_en =   0.102787E+00 tol =   0.100000E-03
 Iteration #         28
  pAp =  0.00004839170350130412  rzold =  0.0000233162762796257  alpha =  0.481823837406289
 delta_qm =   0.252915E-03 delta_en =   0.431770E-01 tol =   0.100000E-03
 Iteration #         29
  pAp =  0.00001515466155411627  rzold =  0.000008229710803779434  alpha =  0.543048142275675
 delta_qm =   0.167469E-03 delta_en =   0.189311E-01 tol =   0.100000E-03
 Iteration #         30
  pAp =  0.00005078737751019447  rzold =  0.000007992403595063234  alpha =  0.15736988178723998
 delta_qm =   0.130890E-03 delta_en =   0.115643E-01 tol =   0.100000E-03
 Iteration #         31
  pAp =  0.0001573401481748237  rzold =  0.000013231090501085498  alpha =  0.08409227177277204
 delta_qm =   0.116209E-03 delta_en =   0.911558E-02 tol =   0.100000E-03
 Iteration #         32
  pAp =  0.00001871371550339785  rzold =  0.000004713219731541644  alpha =  0.2518591100033483
 delta_qm =   0.100878E-03 delta_en =   0.686898E-02 tol =   0.100000E-03
 Iteration #         33
  pAp =  0.0000030754085620110683  rzold =  0.0000015117259304150835  alpha =  0.4915528782382452
 delta_qm =   0.688651E-04 delta_en =   0.320112E-02 tol =   0.100000E-03
 Iteration #         34
  pAp =  7.24515440845116E-7  rzold =  4.181424255977082E-7  alpha =  0.5771339049861561
 delta_qm =   0.338608E-04 delta_en =   0.773925E-03 tol =   0.100000E-03
 Iteration #         35
  pAp =  3.5864401440437246E-7  rzold =  1.9142693799087486E-7  alpha =  0.5337519386983001
 delta_qm =   0.195061E-04 delta_en =   0.256831E-03 tol =   0.100000E-03
 Iteration #         36
  pAp =  1.6208638169366476E-7  rzold =  7.991479278030724E-8  alpha =  0.4930382919605315
 delta_qm =   0.161795E-04 delta_en =   0.176698E-03 tol =   0.100000E-03
 Iteration #         37
  pAp =  2.0754210405661902E-7  rzold =  3.597699677279067E-8  alpha =  0.17334794275274323
 delta_qm =   0.147336E-04 delta_en =   0.146528E-03 tol =   0.100000E-03
 Iteration #         38
  pAp =  0.0000018766569316599065  rzold =  1.5816144645032852E-7  alpha =  0.0842782949734102
 delta_qm =   0.109366E-04 delta_en =   0.807355E-04 tol =   0.100000E-03
 Charges are converged, exit!

%%%% ELECTRONS %%%%%%%%%%%%%%%%%%%%%%%%%%%%%%%%%%%%%%%%%%%%%%%%%%%%%%%%%%%%%%%%%
 number of electrons        =         89
 total electronic charge    =     89.0000000
 number of spin components  =  1

%%%% BOUNDARY %%%%%%%%%%%%%%%%%%%%%%%%%%%%%%%%%%%%%%%%%%%%%%%%%%%%%%%%%%%%%%%%%%
 boundary mode              = electronic           
 boundary is built as a function of a smooth density
 function type              =  2 
 using the modified SCCS function with parameters 
 rhomax                     =      0.0050000 
 rhomin                     =      0.0001000 

%%%% DIELECTRIC %%%%%%%%%%%%%%%%%%%%%%%%%%%%%%%%%%%%%%%%%%%%%%%%%%%%%%%%%%%%%%%%%
 dielectric build on homogeneous background
 environment bulk permitt.  =    100.0000000 
 dielectric flags
 need gradient              =  F 
 need factor depend. sqrt   =  T 
 need gradient of logarithm =  T 

%%%% COMPUTE ELECTROSTATIC POTENTIAL %%%%%%%%%%%%%%%%%%%%%%%%%%%%%%%%%%%%%%%%%%%
 Warning: bad guess with residual norm =   0.806994E+06, reset to no guess
 Iteration #          1
  pAp =  1290.4833972446463  rzold =  1269.5244470811203  alpha =  0.9837588378058361
 delta_qm =   0.230729E+00 delta_en =   0.359342E+05 tol =   0.100000E-03
 Iteration #          2
  pAp =  26447.263261517113  rzold =  710.325931773696  alpha =  0.026858201725820045
 delta_qm =   0.513876E-01 delta_en =   0.178246E+04 tol =   0.100000E-03
 Iteration #          3
  pAp =  771.916504612386  rzold =  24.300587947021192  alpha =  0.031480850327489256
 delta_qm =   0.282753E-01 delta_en =   0.539657E+03 tol =   0.100000E-03
 Iteration #          4
  pAp =  9.027571697784696  rzold =  1.0344890212068385  alpha =  0.11459216895067087
 delta_qm =   0.163698E-01 delta_en =   0.180881E+03 tol =   0.100000E-03
 Iteration #          5
  pAp =  0.2517585828661672  rzold =  0.06215336516397771  alpha =  0.24687684708257962
 delta_qm =   0.109678E-01 delta_en =   0.811977E+02 tol =   0.100000E-03
 Iteration #          6
  pAp =  0.057078448980175896  rzold =  0.021921125681333756  alpha =  0.38405258154346933
 delta_qm =   0.766517E-02 delta_en =   0.396595E+02 tol =   0.100000E-03
 Iteration #          7
  pAp =  0.02110648097407483  rzold =  0.012026784195774298  alpha =  0.5698147507652669
 delta_qm =   0.457207E-02 delta_en =   0.141101E+02 tol =   0.100000E-03
 Iteration #          8
  pAp =  0.02347163048311565  rzold =  0.011224569797842124  alpha =  0.478218579911461
 delta_qm =   0.375651E-02 delta_en =   0.952519E+01 tol =   0.100000E-03
 Iteration #          9
  pAp =  0.009592509033477256  rzold =  0.005457758638333691  alpha =  0.5689604898245553
 delta_qm =   0.369363E-02 delta_en =   0.920895E+01 tol =   0.100000E-03
 Iteration #         10
  pAp =  0.007749590587174012  rzold =  0.0030892705774417046  alpha =  0.39863661734009703
 delta_qm =   0.351422E-02 delta_en =   0.833608E+01 tol =   0.100000E-03
 Iteration #         11
  pAp =  0.0028057563921092925  rzold =  0.001811531619797195  alpha =  0.6456482198140282
 delta_qm =   0.296367E-02 delta_en =   0.592875E+01 tol =   0.100000E-03
 Iteration #         12
  pAp =  0.0024268192530849234  rzold =  0.0018511148027496045  alpha =  0.7627740716151419
 delta_qm =   0.281695E-02 delta_en =   0.535628E+01 tol =   0.100000E-03
 Iteration #         13
  pAp =  0.009306110645456448  rzold =  0.002132739016391987  alpha =  0.2291761937553645
 delta_qm =   0.254019E-02 delta_en =   0.435548E+01 tol =   0.100000E-03
 Iteration #         14
  pAp =  0.19180846966211107  rzold =  0.010475194663863574  alpha =  0.054612784734254065
 delta_qm =   0.291550E-02 delta_en =   0.573759E+01 tol =   0.100000E-03
 Iteration #         15
  pAp =  0.0024207102104956066  rzold =  0.0011307466539225977  alpha =  0.4671135970840116
 delta_qm =   0.239816E-02 delta_en =   0.388203E+01 tol =   0.100000E-03
 Iteration #         16
  pAp =  0.001524616569814728  rzold =  0.0006263172137120562  alpha =  0.4108031003415938
 delta_qm =   0.190586E-02 delta_en =   0.245181E+01 tol =   0.100000E-03
 Iteration #         17
  pAp =  0.04422075355358855  rzold =  0.0027904766286786955  alpha =  0.06310332602761008
 delta_qm =   0.135226E-02 delta_en =   0.123430E+01 tol =   0.100000E-03
 Iteration #         18
  pAp =  0.0009038648551684176  rzold =  0.0005037044342013164  alpha =  0.5572784817565021
 delta_qm =   0.123574E-02 delta_en =   0.103077E+01 tol =   0.100000E-03
 Iteration #         19
  pAp =  0.00041407416274262575  rzold =  0.00024819966201523945  alpha =  0.5994087155095253
 delta_qm =   0.118739E-02 delta_en =   0.951671E+00 tol =   0.100000E-03
 Iteration #         20
  pAp =  0.00023789327484783992  rzold =  0.0001463769251665523  alpha =  0.6153050154956131
 delta_qm =   0.866787E-03 delta_en =   0.507141E+00 tol =   0.100000E-03
 Iteration #         21
  pAp =  0.00023106527393915364  rzold =  0.0001633434611937632  alpha =  0.7069147968845219
 delta_qm =   0.992372E-03 delta_en =   0.664741E+00 tol =   0.100000E-03
 Iteration #         22
  pAp =  0.00019412454968350444  rzold =  0.00016079718988924762  alpha =  0.8283197058352852
 delta_qm =   0.132469E-02 delta_en =   0.118449E+01 tol =   0.100000E-03
 Iteration #         23
  pAp =  0.00020058694749548124  rzold =  0.00015301052383280358  alpha =  0.7628139604460084
 delta_qm =   0.110490E-02 delta_en =   0.824037E+00 tol =   0.100000E-03
 Iteration #         24
  pAp =  0.000260734847951323  rzold =  0.0001485222407691634  alpha =  0.5696294221357447
 delta_qm =   0.761148E-03 delta_en =   0.391059E+00 tol =   0.100000E-03
 Iteration #         25
  pAp =  0.01176730006957316  rzold =  0.0004124786959137956  alpha =  0.0350529597677505
 delta_qm =   0.723823E-03 delta_en =   0.353646E+00 tol =   0.100000E-03
 Iteration #         26
  pAp =  0.00036209094201448006  rzold =  0.00014758763027859016  alpha =  0.407598238877481
 delta_qm =   0.661289E-03 delta_en =   0.295180E+00 tol =   0.100000E-03
 Iteration #         27
  pAp =  0.0001121759139482786  rzold =  0.00006852579743367874  alpha =  0.6108779953000802
 delta_qm =   0.547999E-03 delta_en =   0.202704E+00 tol =   0.100000E-03
 Iteration #         28
  pAp =  0.00008043179256007939  rzold =  0.000038766165647947766  alpha =  0.48197565184178837
 delta_qm =   0.386763E-03 delta_en =   0.100970E+00 tol =   0.100000E-03
 Iteration #         29
  pAp =  0.00008864368026596225  rzold =  0.00001714646117834989  alpha =  0.19343128722661865
 delta_qm =   0.336320E-03 delta_en =   0.763500E-01 tol =   0.100000E-03
 Iteration #         30
  pAp =  0.0004719884800981066  rzold =  0.00004330592544097588  alpha =  0.09175208138972882
 delta_qm =   0.253809E-03 delta_en =   0.434827E-01 tol =   0.100000E-03
 Iteration #         31
  pAp =  0.00009205626439469956  rzold =  0.000019326023947260866  alpha =  0.20993708656695856
 delta_qm =   0.171630E-03 delta_en =   0.198834E-01 tol =   0.100000E-03
 Iteration #         32
  pAp =  0.000011106323480827856  rzold =  0.000005815953303095612  alpha =  0.5236614360400472
 delta_qm =   0.156146E-03 delta_en =   0.164576E-01 tol =   0.100000E-03
 Iteration #         33
  pAp =  0.000007739987570430925  rzold =  0.0000033576015575267675  alpha =  0.4337993474761915
 delta_qm =   0.122026E-03 delta_en =   0.100510E-01 tol =   0.100000E-03
 Iteration #         34
  pAp =  0.0000020498807438338067  rzold =  0.000001117996639588643  alpha =  0.5453959421550058
 delta_qm =   0.667847E-04 delta_en =   0.301063E-02 tol =   0.100000E-03
 Iteration #         35
  pAp =  8.715076154059791E-7  rzold =  5.15773866433276E-7  alpha =  0.591817968444269
 delta_qm =   0.338192E-04 delta_en =   0.772022E-03 tol =   0.100000E-03
 Iteration #         36
  pAp =  4.1254959395118886E-7  rzold =  1.986567077541025E-7  alpha =  0.48153412502838805
 delta_qm =   0.291159E-04 delta_en =   0.572221E-03 tol =   0.100000E-03
 Iteration #         37
  pAp =  0.000025593042744336462  rzold =  8.125641164730588E-7  alpha =  0.031749414268175395
 delta_qm =   0.289393E-04 delta_en =   0.565303E-03 tol =   0.100000E-03
 Iteration #         38
  pAp =  1.5187560928894654E-7  rzold =  8.580680952488209E-8  alpha =  0.5649808414044472
 delta_qm =   0.201751E-04 delta_en =   0.274749E-03 tol =   0.100000E-03
 Iteration #         39
  pAp =  6.094154351822404E-8  rzold =  3.764662542986433E-8  alpha =  0.6177497853923972
 delta_qm =   0.107516E-04 delta_en =   0.780274E-04 tol =   0.100000E-03
 Charges are converged, exit!

%%%% ELECTRONS %%%%%%%%%%%%%%%%%%%%%%%%%%%%%%%%%%%%%%%%%%%%%%%%%%%%%%%%%%%%%%%%%
 number of electrons        =         89
 total electronic charge    =     89.0000000
 number of spin components  =  1

%%%% BOUNDARY %%%%%%%%%%%%%%%%%%%%%%%%%%%%%%%%%%%%%%%%%%%%%%%%%%%%%%%%%%%%%%%%%%
 boundary mode              = electronic           
 boundary is built as a function of a smooth density
 function type              =  2 
 using the modified SCCS function with parameters 
 rhomax                     =      0.0050000 
 rhomin                     =      0.0001000 

%%%% DIELECTRIC %%%%%%%%%%%%%%%%%%%%%%%%%%%%%%%%%%%%%%%%%%%%%%%%%%%%%%%%%%%%%%%%%
 dielectric build on homogeneous background
 environment bulk permitt.  =    100.0000000 
 dielectric flags
 need gradient              =  F 
 need factor depend. sqrt   =  T 
 need gradient of logarithm =  T 
