
     Program PWSCF v.6.1 (svn rev. 13369) starts on 31Jan2018 at 22:17: 2 

     This program is part of the open-source Quantum ESPRESSO suite
     for quantum simulation of materials; please cite
         "P. Giannozzi et al., J. Phys.:Condens. Matter 21 395502 (2009);
          URL http://www.quantum-espresso.org", 
     in publications or presentations arising from this work. More details at
     http://www.quantum-espresso.org/quote

     Parallel version (MPI), running on     1 processors
     Reading input from neutral.in

     Current dimensions of program PWSCF are:
     Max number of different atomic species (ntypx) = 10
     Max number of k-points (npk) =  40000
     Max angular momentum in pseudopotentials (lmaxx) =  3
               file C.pbe-rrkjus.UPF: wavefunction(s)  2S 2P renormalized
               file O.pbe-rrkjus.UPF: wavefunction(s)  2S renormalized

     gamma-point specific algorithms are used

     Subspace diagonalization in iterative solution of the eigenvalue problem:
     a serial algorithm will be used

 
     G-vector sticks info
     --------------------
     sticks:   dense  smooth     PW     G-vecs:    dense   smooth      PW
     Sum        2357    1099    269               366833   116965   14571
 


     bravais-lattice index     =            8
     lattice parameter (alat)  =      10.6881  a.u.
     unit-cell volume          =    4181.1215 (a.u.)^3
     number of atoms/cell      =           10
     number of atomic types    =            3
     number of electrons       =        90.00
     number of Kohn-Sham states=           80
     kinetic-energy cutoff     =      35.0000  Ry
     charge density cutoff     =     300.0000  Ry
     convergence threshold     =      5.0E-03
     mixing beta               =       0.7000
     number of iterations used =            8  plain     mixing
     Exchange-correlation      = PBE ( 1  4  3  4 0 0)
 

     Environ Module
     ==============

     Plese cite
         O. Andreussi, I. Dabo and N. Marzari, J. Chem. Phys. 136, 064102 (2012)         
     in publications or presentations arising from this work.

     compensation onset threshold      =               0.1000E+03 

     Electrostatic Setup
     -------------------
     electrostatic problem to solve    = poisson                  
     numerical solver adopted          = direct                   
     type of auxiliary density adopted = none                     
     type of core tool for poisson     = fft                      
     type of core tool for s(r) deriv  = analytic                 



     celldm(1)=  10.688100  celldm(2)=   0.866025  celldm(3)=   3.954220
     celldm(4)=   0.000000  celldm(5)=   0.000000  celldm(6)=   0.000000

     crystal axes: (cart. coord. in units of alat)
               a(1) = (   1.000000   0.000000   0.000000 )  
               a(2) = (   0.000000   0.866025   0.000000 )  
               a(3) = (   0.000000   0.000000   3.954220 )  

     reciprocal axes: (cart. coord. in units 2 pi/alat)
               b(1) = (  1.000000  0.000000  0.000000 )  
               b(2) = (  0.000000  1.154701  0.000000 )  
               b(3) = (  0.000000  0.000000  0.252894 )  


     PseudoPot. # 1 for C  read from file:
     /home/fnattino/Programs/qe-6.1/Environ/tests/../..//pseudo/C.pbe-rrkjus.UPF
     MD5 check sum: 00fb224312de0c5b6853bd333518df6f
     Pseudo is Ultrasoft, Zval =  4.0
     Generated by new atomic code, or converted to UPF format
     Using radial grid of  627 points,  4 beta functions with: 
                l(1) =   0
                l(2) =   0
                l(3) =   1
                l(4) =   1
     Q(r) pseudized with 0 coefficients 


     PseudoPot. # 2 for O  read from file:
     /home/fnattino/Programs/qe-6.1/Environ/tests/../..//pseudo/O.pbe-rrkjus.UPF
     MD5 check sum: 390ba29e75625707450f3bd3f0eb6be9
     Pseudo is Ultrasoft, Zval =  6.0
     Generated by new atomic code, or converted to UPF format
     Using radial grid of 1269 points,  4 beta functions with: 
                l(1) =   0
                l(2) =   0
                l(3) =   1
                l(4) =   1
     Q(r) pseudized with 0 coefficients 


     PseudoPot. # 3 for Pt read from file:
     /home/fnattino/Programs/qe-6.1/Environ/tests/../..//pseudo/Pt.pbe-n-rrkjus_psl.0.1.UPF
     MD5 check sum: df5be8f5ed4f66d4aed38ca70ec8d507
     Pseudo is Ultrasoft + core correction, Zval = 10.0
     Generated using "atomic" code by A. Dal Corso  v.5.0.2 svn rev. 9415
     Using radial grid of 1277 points,  6 beta functions with: 
                l(1) =   0
                l(2) =   0
                l(3) =   1
                l(4) =   1
                l(5) =   2
                l(6) =   2
     Q(r) pseudized with 0 coefficients 


     atomic species   valence    mass     pseudopotential
        C              4.00     1.00000     C ( 1.00)
        O              6.00     1.00000     O ( 1.00)
        Pt            10.00     1.00000     Pt( 1.00)

     No symmetry found



   Cartesian axes

     site n.     atom                  positions (alat units)
         1           C   tau(   1) = (   0.4991611   0.4347567   1.2070461  )
         2           O   tau(   2) = (   0.4991542   0.4322212   1.4109013  )
         3           Pt  tau(   3) = (   0.7542339   0.0091745   0.8413229  )
         4           Pt  tau(   4) = (   0.2441023   0.0091745   0.8413226  )
         5           Pt  tau(   5) = (   0.0000034   0.4416918   0.8391348  )
         6           Pt  tau(   6) = (   0.4991682   0.4417635   0.8776299  )
         7           Pt  tau(   7) = (   0.0000038   0.7300598   0.4308181  )
         8           Pt  tau(   8) = (   0.4991683   0.7202168   0.4447460  )
         9           Pt  tau(   9) = (   0.2524172   0.2949237   0.4386572  )
        10           Pt  tau(  10) = (   0.7459196   0.2949237   0.4386575  )

     number of k points=     1  Marzari-Vanderbilt smearing, width (Ry)=  0.0300
                       cart. coord. in units 2pi/alat
        k(    1) = (   0.0000000   0.0000000   0.0000000), wk =   2.0000000

     Dense  grid:   183417 G-vectors     FFT dimensions: (  60,  54, 240)

     Smooth grid:    58483 G-vectors     FFT dimensions: (  45,  36, 160)

     Estimated max dynamical RAM per process >     231.32MB

     Initial potential from superposition of free atoms
     Check: negative starting charge=   -0.003086

     starting charge   89.99859, renormalised to   90.00000

     negative rho (up, down):  3.086E-03 0.000E+00
     Starting wfc are   80 randomized atomic wfcs

     total cpu time spent up to now is        5.3 secs

     per-process dynamical memory:   214.2 Mb

     Self-consistent Calculation

     iteration #  1     ecut=    35.00 Ry     beta=0.70
     Davidson diagonalization with overlap
     ethr =  1.00E-02,  avg # of iterations =  8.0

     negative rho (up, down):  2.238E-03 0.000E+00

     add environment contribution to local potential

     total cpu time spent up to now is        7.9 secs

     total energy              =    -623.07788607 Ry
     Harris-Foulkes estimate   =    -624.45760611 Ry
     estimated scf accuracy    <       1.80056586 Ry
     electrostatic embedding   =       0.00000000 Ry
     correction to one-el term =       0.00000000 Ry

     iteration #  2     ecut=    35.00 Ry     beta=0.70
     Davidson diagonalization with overlap
     ethr =  2.00E-03,  avg # of iterations =  5.0

     negative rho (up, down):  1.658E-02 0.000E+00

     add environment contribution to local potential

     total cpu time spent up to now is       10.3 secs

     total energy              =    -620.30889909 Ry
     Harris-Foulkes estimate   =    -665.93488362 Ry
     estimated scf accuracy    <      26.82658360 Ry
     electrostatic embedding   =       0.00013697 Ry
     correction to one-el term =      39.43950379 Ry

     iteration #  3     ecut=    35.00 Ry     beta=0.70
     Davidson diagonalization with overlap
     ethr =  2.00E-03,  avg # of iterations =  8.0

     negative rho (up, down):  1.031E-02 0.000E+00

     add environment contribution to local potential

     total cpu time spent up to now is       12.8 secs

     total energy              =    -622.99580299 Ry
     Harris-Foulkes estimate   =    -654.11049369 Ry
     estimated scf accuracy    <      35.13402808 Ry
     electrostatic embedding   =       0.01704135 Ry
     correction to one-el term =      28.87581012 Ry

     iteration #  4     ecut=    35.00 Ry     beta=0.70
     Davidson diagonalization with overlap
     ethr =  2.00E-03,  avg # of iterations =  4.0

     negative rho (up, down):  5.793E-03 0.000E+00

     add environment contribution to local potential

     total cpu time spent up to now is       15.0 secs

     total energy              =    -623.53421769 Ry
     Harris-Foulkes estimate   =    -654.78170881 Ry
     estimated scf accuracy    <      10.24132911 Ry
     electrostatic embedding   =       0.00016066 Ry
     correction to one-el term =      30.04827114 Ry

     iteration #  5     ecut=    35.00 Ry     beta=0.70
     Davidson diagonalization with overlap
     ethr =  2.00E-03,  avg # of iterations =  2.0

     negative rho (up, down):  4.379E-03 0.000E+00

     add environment contribution to local potential

     total cpu time spent up to now is       17.0 secs

     total energy              =    -624.03264461 Ry
     Harris-Foulkes estimate   =    -656.48646235 Ry
     estimated scf accuracy    <       1.48354144 Ry
     electrostatic embedding   =       0.00021947 Ry
     correction to one-el term =      32.20143680 Ry

     iteration #  6     ecut=    35.00 Ry     beta=0.70
     Davidson diagonalization with overlap
     ethr =  1.65E-03,  avg # of iterations =  1.0

     negative rho (up, down):  2.569E-03 0.000E+00

     add environment contribution to local potential

     total cpu time spent up to now is       18.9 secs

     total energy              =    -624.11340157 Ry
     Harris-Foulkes estimate   =    -655.39294994 Ry
     estimated scf accuracy    <       0.19164846 Ry
     electrostatic embedding   =       0.00006366 Ry
     correction to one-el term =      31.24077380 Ry

     iteration #  7     ecut=    35.00 Ry     beta=0.70
     Davidson diagonalization with overlap
     ethr =  2.13E-04,  avg # of iterations =  6.0

     negative rho (up, down):  2.467E-03 0.000E+00

     add environment contribution to local potential

     total cpu time spent up to now is       21.1 secs

     total energy              =    -624.12200256 Ry
     Harris-Foulkes estimate   =    -655.62196221 Ry
     estimated scf accuracy    <       0.11988315 Ry
     electrostatic embedding   =       0.00001469 Ry
     correction to one-el term =      31.47519955 Ry

     iteration #  8     ecut=    35.00 Ry     beta=0.70
     Davidson diagonalization with overlap
     ethr =  1.33E-04,  avg # of iterations =  1.0

     negative rho (up, down):  2.118E-03 0.000E+00

     add environment contribution to local potential

     total cpu time spent up to now is       23.1 secs

     total energy              =    -624.12964935 Ry
     Harris-Foulkes estimate   =    -655.43946335 Ry
     estimated scf accuracy    <       0.05920537 Ry
     electrostatic embedding   =       0.00004388 Ry
     correction to one-el term =      31.29887303 Ry

     iteration #  9     ecut=    35.00 Ry     beta=0.70
     Davidson diagonalization with overlap
     ethr =  6.58E-05,  avg # of iterations =  3.0

     negative rho (up, down):  2.345E-03 0.000E+00

     add environment contribution to local potential

     total cpu time spent up to now is       25.1 secs

     total energy              =    -624.13096465 Ry
     Harris-Foulkes estimate   =    -654.93683858 Ry
     estimated scf accuracy    <       0.03367049 Ry
     electrostatic embedding   =       0.00003616 Ry
     correction to one-el term =      30.79921976 Ry

     iteration # 10     ecut=    35.00 Ry     beta=0.70
     Davidson diagonalization with overlap
     ethr =  3.74E-05,  avg # of iterations =  8.0

     negative rho (up, down):  2.479E-03 0.000E+00

     add environment contribution to local potential

     total cpu time spent up to now is       27.2 secs

     total energy              =    -624.13235716 Ry
     Harris-Foulkes estimate   =    -654.37322053 Ry
     estimated scf accuracy    <       0.01479667 Ry
     electrostatic embedding   =       0.00004670 Ry
     correction to one-el term =      30.23708374 Ry

     iteration # 11     ecut=    35.00 Ry     beta=0.70
     Davidson diagonalization with overlap
     ethr =  1.64E-05,  avg # of iterations =  3.0

     negative rho (up, down):  3.615E-03 0.000E+00

     add environment contribution to local potential

     total cpu time spent up to now is       29.3 secs

     total energy              =    -624.13324395 Ry
     Harris-Foulkes estimate   =    -654.35810314 Ry
     estimated scf accuracy    <       0.01744600 Ry
     electrostatic embedding   =       0.00006532 Ry
     correction to one-el term =      30.22160022 Ry

     iteration # 12     ecut=    35.00 Ry     beta=0.70
     Davidson diagonalization with overlap
     ethr =  1.64E-05,  avg # of iterations =  1.0

     negative rho (up, down):  3.153E-03 0.000E+00

     total cpu time spent up to now is       31.1 secs

     End of self-consistent calculation

          k = 0.0000 0.0000 0.0000 (  7286 PWs)   bands (ev):

   -29.4505 -15.5820 -13.6868 -12.9134 -12.2664 -12.2400 -12.1442 -11.4357
   -11.2806 -10.4553 -10.3017 -10.2086  -9.9498  -9.9041  -9.8390  -9.6860
    -9.0608  -9.0133  -8.9731  -8.7730  -8.6782  -8.6287  -8.5728  -8.5386
    -8.5245  -8.3616  -8.3180  -8.2468  -8.1594  -7.8852  -7.7813  -7.0552
    -6.9051  -6.8096  -6.4734  -6.3773  -6.3354  -6.1667  -6.0493  -5.8679
    -5.6953  -5.6532  -5.4615  -5.4449  -5.3845  -5.3838  -5.2059  -4.1591
    -3.7659  -3.6638  -3.2565  -2.6524  -2.5434  -1.6341  -1.2342  -1.1122
    -0.6616  -0.0574   0.3107   0.5367   0.6645   1.0913   1.8745   2.0845
     2.2993   2.4300   2.8075   2.9713   3.2401   3.2823   3.8703   3.9375
     4.3592   4.5820   4.7410   4.9716   5.1353   5.2069   5.3043   5.3566

     the Fermi energy is    -5.2893 ev

!    total energy              =    -624.13318973 Ry
     Harris-Foulkes estimate   =    -654.28044864 Ry
     estimated scf accuracy    <       0.00191848 Ry

     The total energy is the sum of the following terms:

     one-electron contribution =   -3997.50968816 Ry
     hartree contribution      =    2033.28539428 Ry
     xc contribution           =    -263.25341645 Ry
     ewald contribution        =    1573.20467954 Ry
     smearing contrib. (-TS)   =      -0.00562976 Ry
     electrostatic embedding   =       0.00010578 Ry
     correction to one-el term =      30.14536505 Ry

     the Fermi energy shift due to the parabolic pbc-correction is    -0.4600 ev

     convergence has been achieved in  12 iterations

     negative rho (up, down):  3.153E-03 0.000E+00

     Forces acting on atoms (cartesian axes, Ry/au):

     atom    1 type  1   force =     0.00008537   -0.00624030    0.02356583
     atom    2 type  2   force =    -0.00013740    0.00176433    0.01969692
     atom    3 type  3   force =     0.00222403    0.00964560    0.03701413
     atom    4 type  3   force =    -0.00123084    0.00988162    0.03720870
     atom    5 type  3   force =    -0.00145244    0.01529865   -0.00412817
     atom    6 type  3   force =     0.00040669    0.00936892    0.05580415
     atom    7 type  3   force =    -0.00133058   -0.01175446   -0.05058049
     atom    8 type  3   force =     0.00023513   -0.01038150   -0.03332660
     atom    9 type  3   force =     0.00988692   -0.00899764   -0.04274332
     atom   10 type  3   force =    -0.00868688   -0.00858521   -0.04251115

     Total force =     0.123577     Total SCF correction =     0.225031
     SCF correction compared to forces is large: reduce conv_thr to get better values

     Writing output data file pwscf.save
 
     init_run     :      4.94s CPU      5.05s WALL (       1 calls)
     electrons    :     24.16s CPU     25.82s WALL (       1 calls)
     forces       :      2.82s CPU      2.90s WALL (       1 calls)

     Called by init_run:
     wfcinit      :      0.20s CPU      0.21s WALL (       1 calls)
     potinit      :      1.30s CPU      1.33s WALL (       1 calls)

     Called by electrons:
     c_bands      :      7.61s CPU      7.74s WALL (      12 calls)
     sum_band     :      7.52s CPU      8.21s WALL (      12 calls)
     v_of_rho     :      3.34s CPU      3.46s WALL (      13 calls)
     newd         :      4.81s CPU      5.59s WALL (      13 calls)
     mix_rho      :      0.29s CPU      0.29s WALL (      12 calls)

     Called by c_bands:
     init_us_2    :      0.10s CPU      0.12s WALL (      25 calls)
     regterg      :      6.84s CPU      6.97s WALL (      12 calls)

     Called by sum_band:
     sum_band:bec :      0.00s CPU      0.00s WALL (      12 calls)
     addusdens    :      6.08s CPU      6.73s WALL (      12 calls)

     Called by *egterg:
     h_psi        :      4.74s CPU      4.76s WALL (      63 calls)
     s_psi        :      0.34s CPU      0.34s WALL (      63 calls)
     g_psi        :      0.06s CPU      0.06s WALL (      50 calls)
     rdiaghg      :      0.48s CPU      0.48s WALL (      62 calls)

     Called by h_psi:
     h_psi:pot    :      4.69s CPU      4.71s WALL (      63 calls)
     h_psi:calbec :      0.36s CPU      0.33s WALL (      63 calls)
     vloc_psi     :      4.02s CPU      4.05s WALL (      63 calls)
     add_vuspsi   :      0.31s CPU      0.33s WALL (      63 calls)

     General routines
     calbec       :      0.50s CPU      0.48s WALL (      79 calls)
     fft          :      1.77s CPU      1.85s WALL (     260 calls)
     ffts         :      0.03s CPU      0.05s WALL (      25 calls)
     fftw         :      3.71s CPU      3.71s WALL (    2944 calls)
     interpolate  :      0.26s CPU      0.30s WALL (      25 calls)
     davcio       :      0.00s CPU      0.00s WALL (       1 calls)
 
     Parallel routines
     fft_scatter  :      0.78s CPU      0.82s WALL (    3229 calls)
 
     Environ routines
     calc_eelect  :      0.03s CPU      0.01s WALL (      24 calls)
     calc_velect  :      0.88s CPU      0.88s WALL (      22 calls)
     calc_felect  :      0.07s CPU      0.07s WALL (       1 calls)
 
     PWSCF        :    32.25s CPU        34.11s WALL

 
   This run was terminated on:  22:17:36  31Jan2018            

=------------------------------------------------------------------------------=
   JOB DONE.
=------------------------------------------------------------------------------=

%%%% IONS %%%%%%%%%%%%%%%%%%%%%%%%%%%%%%%%%%%%%%%%%%%%%%%%%%%%%%%%%%%%%%%%%%%%%%
 number of ions             =         10
 ionic center of charge     =      0.3882415     0.3750182     0.7201831
 total ionic charge         =    -90.0000000
 ionic dipole               =      0.0000000     0.0000000     0.0000000
 ionic quadrupole (pc)      =   -730.5101255  -614.6110457  -876.7220256
 ionic quadrupole (gauss)   =   -741.7601255  -625.8610457  -887.9720256
 ion   1 type =  1 coordinates =      5.3350841     4.6467234    12.9010299
 ion   2 type =  2 coordinates =      5.3350096     4.6196233    15.0798543
 ion   3 type =  3 coordinates =      8.0613271     0.0980580     8.9921429
 ion   4 type =  3 coordinates =      2.6089894     0.0980583     8.9921406
 ion   5 type =  3 coordinates =      0.0000366     4.7208463     8.9687569
 ion   6 type =  3 coordinates =      5.3351596     4.7216127     9.3801964
 ion   7 type =  3 coordinates =      0.0000411     7.8029520     4.6046265
 ion   8 type =  3 coordinates =      5.3351612     7.6977491     4.7534894
 ion   9 type =  3 coordinates =      2.6978606     3.1521739     4.6884123
 ion  10 type =  3 coordinates =      7.9724637     3.1521745     4.6884152

%%%% SYSTEM %%%%%%%%%%%%%%%%%%%%%%%%%%%%%%%%%%%%%%%%%%%%%%%%%%%%%%%%%%%%%%%%%%%%
 system is built from all present ionic types
 system defined dimension   =  0 
 system defined axis        =  3 
 system center              =      0.3882415     0.3750182     0.7201831 
 system width               =      0.7019013 

%%%% ELECTRONS %%%%%%%%%%%%%%%%%%%%%%%%%%%%%%%%%%%%%%%%%%%%%%%%%%%%%%%%%%%%%%%%%
 number of electrons        =         89
 total electronic charge    =     90.0000000
 number of spin components  =  1

%%%% ELECTRONS %%%%%%%%%%%%%%%%%%%%%%%%%%%%%%%%%%%%%%%%%%%%%%%%%%%%%%%%%%%%%%%%%
 number of electrons        =         89
 total electronic charge    =     90.0000000
 number of spin components  =  1

%%%% ELECTRONS %%%%%%%%%%%%%%%%%%%%%%%%%%%%%%%%%%%%%%%%%%%%%%%%%%%%%%%%%%%%%%%%%
 number of electrons        =         89
 total electronic charge    =     90.0000000
 number of spin components  =  1

%%%% ELECTRONS %%%%%%%%%%%%%%%%%%%%%%%%%%%%%%%%%%%%%%%%%%%%%%%%%%%%%%%%%%%%%%%%%
 number of electrons        =         89
 total electronic charge    =     90.0000000
 number of spin components  =  1

%%%% ELECTRONS %%%%%%%%%%%%%%%%%%%%%%%%%%%%%%%%%%%%%%%%%%%%%%%%%%%%%%%%%%%%%%%%%
 number of electrons        =         89
 total electronic charge    =     90.0000000
 number of spin components  =  1

%%%% ELECTRONS %%%%%%%%%%%%%%%%%%%%%%%%%%%%%%%%%%%%%%%%%%%%%%%%%%%%%%%%%%%%%%%%%
 number of electrons        =         89
 total electronic charge    =     90.0000000
 number of spin components  =  1

%%%% ELECTRONS %%%%%%%%%%%%%%%%%%%%%%%%%%%%%%%%%%%%%%%%%%%%%%%%%%%%%%%%%%%%%%%%%
 number of electrons        =         90
 total electronic charge    =     90.0000000
 number of spin components  =  1

%%%% ELECTRONS %%%%%%%%%%%%%%%%%%%%%%%%%%%%%%%%%%%%%%%%%%%%%%%%%%%%%%%%%%%%%%%%%
 number of electrons        =         90
 total electronic charge    =     90.0000000
 number of spin components  =  1

%%%% ELECTRONS %%%%%%%%%%%%%%%%%%%%%%%%%%%%%%%%%%%%%%%%%%%%%%%%%%%%%%%%%%%%%%%%%
 number of electrons        =         90
 total electronic charge    =     90.0000000
 number of spin components  =  1

%%%% ELECTRONS %%%%%%%%%%%%%%%%%%%%%%%%%%%%%%%%%%%%%%%%%%%%%%%%%%%%%%%%%%%%%%%%%
 number of electrons        =         90
 total electronic charge    =     90.0000000
 number of spin components  =  1

%%%% ELECTRONS %%%%%%%%%%%%%%%%%%%%%%%%%%%%%%%%%%%%%%%%%%%%%%%%%%%%%%%%%%%%%%%%%
 number of electrons        =         90
 total electronic charge    =     90.0000000
 number of spin components  =  1

%%%% ELECTRONS %%%%%%%%%%%%%%%%%%%%%%%%%%%%%%%%%%%%%%%%%%%%%%%%%%%%%%%%%%%%%%%%%
 number of electrons        =         90
 total electronic charge    =     90.0000000
 number of spin components  =  1

%%%% ELECTRONS %%%%%%%%%%%%%%%%%%%%%%%%%%%%%%%%%%%%%%%%%%%%%%%%%%%%%%%%%%%%%%%%%
 number of electrons        =         90
 total electronic charge    =     90.0000000
 number of spin components  =  1
