
     Program PWSCF v.6.1 (svn rev. 13369) starts on 29Sep2017 at 16:26:29 

     This program is part of the open-source Quantum ESPRESSO suite
     for quantum simulation of materials; please cite
         "P. Giannozzi et al., J. Phys.:Condens. Matter 21 395502 (2009);
          URL http://www.quantum-espresso.org", 
     in publications or presentations arising from this work. More details at
     http://www.quantum-espresso.org/quote

     Serial version
     Reading input from neutral.in

     Current dimensions of program PWSCF are:
     Max number of different atomic species (ntypx) = 10
     Max number of k-points (npk) =  40000
     Max angular momentum in pseudopotentials (lmaxx) =  3
               file C.pbe-rrkjus.UPF: wavefunction(s)  2S 2P renormalized
               file O.pbe-rrkjus.UPF: wavefunction(s)  2S renormalized

     gamma-point specific algorithms are used

     G-vector sticks info
     --------------------
     sticks:   dense  smooth     PW     G-vecs:    dense   smooth      PW
     Sum        2205    1099    269               330909   116965   14571



     bravais-lattice index     =            8
     lattice parameter (alat)  =      10.6881  a.u.
     unit-cell volume          =    4181.1215 (a.u.)^3
     number of atoms/cell      =           10
     number of atomic types    =            3
     number of electrons       =        89.00
     number of Kohn-Sham states=           80
     kinetic-energy cutoff     =      35.0000  Ry
     charge density cutoff     =     280.0000  Ry
     convergence threshold     =      5.0E-02
     mixing beta               =       0.7000
     number of iterations used =            8  plain     mixing
     Exchange-correlation      = PBE ( 1  4  3  4 0 0)


     Environ Module
     ==============

     Plese cite
         O. Andreussi, I. Dabo and N. Marzari, J. Chem. Phys. 136, 064102 (2012)         
     in publications or presentations arising from this work.

     compensation onset threshold      =               0.1000E+03 
     static permittivity               =                   100.00 
     epsilon calculation mode          =               electronic 

     Electrostatic Setup
     -------------------
     electrostatic problem to solve    = generalized              
     numerical solver adopted          = cg                       
     type of auxiliary density adopted = none                     
     type of core tool for poisson     = fft                      
     type of core tool for s(r) deriv  = analytic                 



     celldm(1)=  10.688100  celldm(2)=   0.866025  celldm(3)=   3.954220
     celldm(4)=   0.000000  celldm(5)=   0.000000  celldm(6)=   0.000000

     crystal axes: (cart. coord. in units of alat)
               a(1) = (   1.000000   0.000000   0.000000 )  
               a(2) = (   0.000000   0.866025   0.000000 )  
               a(3) = (   0.000000   0.000000   3.954220 )  

     reciprocal axes: (cart. coord. in units 2 pi/alat)
               b(1) = (  1.000000  0.000000  0.000000 )  
               b(2) = (  0.000000  1.154701  0.000000 )  
               b(3) = (  0.000000  0.000000  0.252894 )  


     PseudoPot. # 1 for C  read from file:
     /Users/oliviero/PWSCF/espresso-6.1-Environ-1.0/Environ/tests/../..//pseudo/C.pbe-rrkjus.UPF
     MD5 check sum: 00fb224312de0c5b6853bd333518df6f
     Pseudo is Ultrasoft, Zval =  4.0
     Generated by new atomic code, or converted to UPF format
     Using radial grid of  627 points,  4 beta functions with: 
                l(1) =   0
                l(2) =   0
                l(3) =   1
                l(4) =   1
     Q(r) pseudized with 0 coefficients 


     PseudoPot. # 2 for O  read from file:
     /Users/oliviero/PWSCF/espresso-6.1-Environ-1.0/Environ/tests/../..//pseudo/O.pbe-rrkjus.UPF
     MD5 check sum: 390ba29e75625707450f3bd3f0eb6be9
     Pseudo is Ultrasoft, Zval =  6.0
     Generated by new atomic code, or converted to UPF format
     Using radial grid of 1269 points,  4 beta functions with: 
                l(1) =   0
                l(2) =   0
                l(3) =   1
                l(4) =   1
     Q(r) pseudized with 0 coefficients 


     PseudoPot. # 3 for Pt read from file:
     /Users/oliviero/PWSCF/espresso-6.1-Environ-1.0/Environ/tests/../..//pseudo/Pt.pbe-n-rrkjus.UPF
     MD5 check sum: df5be8f5ed4f66d4aed38ca70ec8d507
     Pseudo is Ultrasoft + core correction, Zval = 10.0
     Generated using "atomic" code by A. Dal Corso  v.5.0.2 svn rev. 9415
     Using radial grid of 1277 points,  6 beta functions with: 
                l(1) =   0
                l(2) =   0
                l(3) =   1
                l(4) =   1
                l(5) =   2
                l(6) =   2
     Q(r) pseudized with 0 coefficients 


     atomic species   valence    mass     pseudopotential
        C              4.00     1.00000     C ( 1.00)
        O              6.00     1.00000     O ( 1.00)
        Pt            10.00     1.00000     Pt( 1.00)

     No symmetry found



   Cartesian axes

     site n.     atom                  positions (alat units)
         1           C   tau(   1) = (   0.4991611   0.4347567   1.2070461  )
         2           O   tau(   2) = (   0.4991542   0.4322212   1.4109013  )
         3           Pt  tau(   3) = (   0.7542339   0.0091745   0.8413229  )
         4           Pt  tau(   4) = (   0.2441023   0.0091745   0.8413226  )
         5           Pt  tau(   5) = (   0.0000034   0.4416918   0.8391348  )
         6           Pt  tau(   6) = (   0.4991682   0.4417635   0.8776299  )
         7           Pt  tau(   7) = (   0.0000038   0.7300598   0.4308181  )
         8           Pt  tau(   8) = (   0.4991683   0.7202168   0.4447460  )
         9           Pt  tau(   9) = (   0.2524172   0.2949237   0.4386572  )
        10           Pt  tau(  10) = (   0.7459196   0.2949237   0.4386575  )

     number of k points=     1  Marzari-Vanderbilt smearing, width (Ry)=  0.0300
                       cart. coord. in units 2pi/alat
        k(    1) = (   0.0000000   0.0000000   0.0000000), wk =   2.0000000

     Dense  grid:   165455 G-vectors     FFT dimensions: (  60,  50, 225)

     Smooth grid:    58483 G-vectors     FFT dimensions: (  45,  36, 160)

     Estimated max dynamical RAM per process >     216.67MB

     Initial potential from superposition of free atoms
     Check: negative starting charge=   -0.001782

     starting charge   89.99859, renormalised to   89.00000

     negative rho (up, down):  1.762E-03 0.000E+00
     Starting wfc are   80 randomized atomic wfcs

     total cpu time spent up to now is       22.6 secs

     Self-consistent Calculation

     iteration #  1     ecut=    35.00 Ry     beta=0.70
     Davidson diagonalization with overlap
     ethr =  1.00E-02,  avg # of iterations =  5.0

     negative rho (up, down):  1.526E-03 0.000E+00

     add environment contribution to local potential
     polarization accuracy = 7.8E-05, # of iterations =  28

     total cpu time spent up to now is       44.5 secs

     total energy              =    -622.68843633 Ry
     Harris-Foulkes estimate   =    -624.21108732 Ry
     estimated scf accuracy    <       1.86594048 Ry
     electrostatic embedding   =       0.03381190 Ry
     correction to one-el term =       0.00000000 Ry

     iteration #  2     ecut=    35.00 Ry     beta=0.70
     Davidson diagonalization with overlap
     ethr =  2.10E-03,  avg # of iterations =  7.0

     negative rho (up, down):  2.100E-02 0.000E+00

     add environment contribution to local potential
     polarization accuracy = 6.9E-05, # of iterations =  54

     total cpu time spent up to now is       81.8 secs

     total energy              =    -618.55436272 Ry
     Harris-Foulkes estimate   =    -634.00551591 Ry
     estimated scf accuracy    <      44.50699462 Ry
     electrostatic embedding   =       0.27946573 Ry
     correction to one-el term =       6.72114312 Ry

     iteration #  3     ecut=    35.00 Ry     beta=0.70
     Davidson diagonalization with overlap
     ethr =  2.10E-03,  avg # of iterations =  6.0

     negative rho (up, down):  7.309E-03 0.000E+00

     add environment contribution to local potential
     polarization accuracy = 7.5E-05, # of iterations =  32

     total cpu time spent up to now is      106.7 secs

     total energy              =    -623.49336812 Ry
     Harris-Foulkes estimate   =    -629.64574931 Ry
     estimated scf accuracy    <       1.39325568 Ry
     electrostatic embedding   =       0.31502862 Ry
     correction to one-el term =       5.42917035 Ry

     iteration #  4     ecut=    35.00 Ry     beta=0.70
     Davidson diagonalization with overlap
     ethr =  1.57E-03,  avg # of iterations =  2.0

     negative rho (up, down):  1.005E-02 0.000E+00

     add environment contribution to local potential
     polarization accuracy = 4.1E-05, # of iterations =  41

     total cpu time spent up to now is      136.3 secs

     total energy              =    -623.64843562 Ry
     Harris-Foulkes estimate   =    -630.69205048 Ry
     estimated scf accuracy    <       0.73716198 Ry
     electrostatic embedding   =       0.29492409 Ry
     correction to one-el term =       6.56844652 Ry

     iteration #  5     ecut=    35.00 Ry     beta=0.70
     Davidson diagonalization with overlap
     ethr =  8.28E-04,  avg # of iterations =  2.0

     negative rho (up, down):  5.688E-03 0.000E+00

     add environment contribution to local potential
     polarization accuracy = 5.0E-05, # of iterations =  36

     total cpu time spent up to now is      163.0 secs

     total energy              =    -623.62193033 Ry
     Harris-Foulkes estimate   =    -629.76300918 Ry
     estimated scf accuracy    <       0.15110862 Ry
     electrostatic embedding   =       0.28715109 Ry
     correction to one-el term =       5.80763376 Ry

     iteration #  6     ecut=    35.00 Ry     beta=0.70
     Davidson diagonalization with overlap
     ethr =  1.70E-04,  avg # of iterations = 11.0

     negative rho (up, down):  4.324E-03 0.000E+00

     add environment contribution to local potential
     polarization accuracy = 8.2E-05, # of iterations =  38

     total cpu time spent up to now is      191.7 secs

     total energy              =    -623.59014691 Ry
     Harris-Foulkes estimate   =    -628.86124330 Ry
     estimated scf accuracy    <       0.12482998 Ry
     electrostatic embedding   =       0.26849193 Ry
     correction to one-el term =       4.97398132 Ry

     iteration #  7     ecut=    35.00 Ry     beta=0.70
     Davidson diagonalization with overlap
     ethr =  1.40E-04,  avg # of iterations =  2.0

     negative rho (up, down):  4.462E-03 0.000E+00

     add environment contribution to local potential
     polarization accuracy = 7.7E-05, # of iterations =  39

     total cpu time spent up to now is      220.1 secs

     total energy              =    -623.56181900 Ry
     Harris-Foulkes estimate   =    -627.95188051 Ry
     estimated scf accuracy    <       0.10577182 Ry
     electrostatic embedding   =       0.25654595 Ry
     correction to one-el term =       4.11376604 Ry

     iteration #  8     ecut=    35.00 Ry     beta=0.70
     Davidson diagonalization with overlap
     ethr =  1.19E-04,  avg # of iterations =  2.0

     negative rho (up, down):  2.137E-03 0.000E+00

     total cpu time spent up to now is      225.6 secs

     End of self-consistent calculation

          k = 0.0000 0.0000 0.0000 (  7286 PWs)   bands (ev):

   -28.8492 -15.1516 -13.4573 -12.4407 -11.9843 -11.6313 -11.6162 -11.2213
   -11.0686 -10.1780 -10.1380  -9.9920  -9.7019  -9.6837  -9.6061  -9.5267
    -8.8068  -8.7392  -8.6988  -8.5073  -8.4809  -8.4679  -8.3676  -8.3509
    -8.2904  -8.2172  -8.0818  -8.0439  -7.9698  -7.6666  -7.5488  -6.8623
    -6.6794  -6.4066  -6.1964  -6.1613  -6.1117  -5.8884  -5.8391  -5.6382
    -5.4637  -5.4285  -5.2388  -5.2220  -5.1419  -4.9833  -4.6740  -3.7860
    -3.4991  -3.2438  -2.8211  -2.0594  -1.8965  -1.1730  -0.7590  -0.4366
     0.1593   0.3871   0.7543   1.0851   1.3957   1.8617   2.1255   2.5706
     3.0529   3.3289   3.5131   3.8232   3.9716   4.4167   4.8483   4.8643
     4.9285   5.0674   5.6420   5.7075   5.7895   5.9074   6.1442   6.2907

     the Fermi energy is    -5.0581 ev

!    total energy              =    -623.55281801 Ry
     Harris-Foulkes estimate   =    -627.43595844 Ry
     estimated scf accuracy    <       0.03886859 Ry

     The total energy is the sum of the following terms:

     one-electron contribution =   -3944.04102926 Ry
     hartree contribution      =    2006.36918429 Ry
     xc contribution           =    -262.93486422 Ry
     ewald contribution        =    1573.20467954 Ry
     smearing contrib. (-TS)   =       0.00219707 Ry
     electrostatic embedding   =       0.24938456 Ry
     correction to one-el term =       3.59763001 Ry

     convergence has been achieved in   8 iterations

     negative rho (up, down):  2.137E-03 0.000E+00

     Forces acting on atoms (cartesian axes, Ry/au):

     atom    1 type  1   force =    -0.10261957   -0.06882350    0.06567828
     atom    2 type  2   force =    -0.04777655   -0.04157659   -0.02513193
     atom    3 type  3   force =     0.15890674    0.03966896    0.07728700
     atom    4 type  3   force =    -0.14185958    0.04300513    0.03947031
     atom    5 type  3   force =     0.18490037   -0.04122570    0.00163242
     atom    6 type  3   force =    -0.10356194   -0.05297422    0.13406697
     atom    7 type  3   force =     0.18828447    0.15426817   -0.07311870
     atom    8 type  3   force =    -0.11930319    0.12510414   -0.07514229
     atom    9 type  3   force =    -0.13141604   -0.07839739   -0.05268651
     atom   10 type  3   force =     0.11444529   -0.07904901   -0.09205553

     Total force =     0.549626     Total SCF correction =     0.648122
     SCF correction compared to forces is large: reduce conv_thr to get better values

     Writing output data file pwscf.save

     init_run     :     21.29s CPU     22.12s WALL (       1 calls)
     electrons    :    196.14s CPU    203.10s WALL (       1 calls)
     forces       :      7.81s CPU      8.11s WALL (       1 calls)

     Called by init_run:
     wfcinit      :      0.68s CPU      0.60s WALL (       1 calls)
     potinit      :      3.24s CPU      3.36s WALL (       1 calls)

     Called by electrons:
     c_bands      :     18.49s CPU     14.82s WALL (       8 calls)
     sum_band     :     14.37s CPU     14.67s WALL (       8 calls)
     v_of_rho     :      5.06s CPU      5.53s WALL (       9 calls)
     newd         :      8.35s CPU     10.60s WALL (       9 calls)
     mix_rho      :      0.44s CPU      0.59s WALL (       8 calls)

     Called by c_bands:
     init_us_2    :      0.16s CPU      0.19s WALL (      17 calls)
     regterg      :     17.49s CPU     13.78s WALL (       8 calls)

     Called by sum_band:
     sum_band:bec :      0.00s CPU      0.00s WALL (       8 calls)
     addusdens    :     11.40s CPU     11.64s WALL (       8 calls)

     Called by *egterg:
     h_psi        :     11.79s CPU     10.83s WALL (      46 calls)
     s_psi        :      1.26s CPU      0.37s WALL (      46 calls)
     g_psi        :      0.12s CPU      0.12s WALL (      37 calls)
     rdiaghg      :      0.70s CPU      0.66s WALL (      45 calls)

     Called by h_psi:
     h_psi:pot    :     11.69s CPU     10.72s WALL (      46 calls)
     h_psi:calbec :      0.68s CPU      0.36s WALL (      46 calls)
     vloc_psi     :      9.71s CPU      9.98s WALL (      46 calls)
     add_vuspsi   :      1.30s CPU      0.38s WALL (      46 calls)

     General routines
     calbec       :      1.02s CPU      0.53s WALL (      58 calls)
     fft          :     15.83s CPU     16.25s WALL (     794 calls)
     ffts         :      0.13s CPU      0.13s WALL (      17 calls)
     fftw         :      9.04s CPU      9.31s WALL (    2120 calls)
     interpolate  :      0.59s CPU      0.69s WALL (      17 calls)
     davcio       :      0.03s CPU      0.03s WALL (       1 calls)


     Environ routines
     calc_eelect  :      0.02s CPU      0.02s WALL (      16 calls)
     calc_velect  :    146.23s CPU    153.48s WALL (      14 calls)
     dielectric   :      0.34s CPU      0.44s WALL (       9 calls)
     calc_felect  :      0.89s CPU      0.92s WALL (       1 calls)

     PWSCF        :  3m45.72s CPU     3m54.06s WALL


   This run was terminated on:  16:30:23  29Sep2017            

=------------------------------------------------------------------------------=
   JOB DONE.
=------------------------------------------------------------------------------=

%%%% IONS %%%%%%%%%%%%%%%%%%%%%%%%%%%%%%%%%%%%%%%%%%%%%%%%%%%%%%%%%%%%%%%%%%%%%%
 number of ions             =         10
 ionic center of charge     =      0.3882415     0.3750182     0.7201831
 total ionic charge         =    -90.0000000
 ionic dipole               =      0.0000000     0.0000000     0.0000000
 ionic quadrupole (pc)      =   -730.5101255  -614.6110457  -876.7220256
 ionic quadrupole (gauss)   =   -741.7601255  -625.8610457  -887.9720256
 ion   1 type =  1 coordinates =      5.3350841     4.6467234    12.9010299
 ion   2 type =  2 coordinates =      5.3350096     4.6196233    15.0798543
 ion   3 type =  3 coordinates =      8.0613271     0.0980580     8.9921429
 ion   4 type =  3 coordinates =      2.6089894     0.0980583     8.9921406
 ion   5 type =  3 coordinates =      0.0000366     4.7208463     8.9687569
 ion   6 type =  3 coordinates =      5.3351596     4.7216127     9.3801964
 ion   7 type =  3 coordinates =      0.0000411     7.8029520     4.6046265
 ion   8 type =  3 coordinates =      5.3351612     7.6977491     4.7534894
 ion   9 type =  3 coordinates =      2.6978606     3.1521739     4.6884123
 ion  10 type =  3 coordinates =      7.9724637     3.1521745     4.6884152

%%%% SYSTEM %%%%%%%%%%%%%%%%%%%%%%%%%%%%%%%%%%%%%%%%%%%%%%%%%%%%%%%%%%%%%%%%%%%%
 system is built from all present ionic types
 system defined dimension   =  0 
 system defined axis        =  3 
 system center              =      0.3882415     0.3750182     0.7201831 
 system width               =      1.5145225 

%%%% ELECTRONS %%%%%%%%%%%%%%%%%%%%%%%%%%%%%%%%%%%%%%%%%%%%%%%%%%%%%%%%%%%%%%%%%
 number of electrons        =         89
 total electronic charge    =     89.0000000
 number of spin components  =  1

%%%% BOUNDARY %%%%%%%%%%%%%%%%%%%%%%%%%%%%%%%%%%%%%%%%%%%%%%%%%%%%%%%%%%%%%%%%%%
 boundary mode              = electronic           
 boundary is built as a function of a smooth density
 function type              =  2 
 using the modified SCCS function with parameters 
 rhomax                     =      0.0050000 
 rhomin                     =      0.0001000 

%%%% DIELECTRIC %%%%%%%%%%%%%%%%%%%%%%%%%%%%%%%%%%%%%%%%%%%%%%%%%%%%%%%%%%%%%%%%%
 dielectric build on homogeneous background
 environment bulk permitt.  =    100.0000000 
 dielectric flags
 need gradient              =  F 
 need factor depend. sqrt   =  T 
 need gradient of logarithm =  T 

%%%% COMPUTE ELECTROSTATIC POTENTIAL %%%%%%%%%%%%%%%%%%%%%%%%%%%%%%%%%%%%%%%%%%%
 Iteration #          1
  pAp =  1295.4770044426236  rzold =  1274.3041716080186  alpha =  0.9836563422106326
 delta_qm =   0.176401E+00 delta_en =   0.210042E+05 tol =   0.100000E-03
 Iteration #          2
  pAp =  8450.281648144164  rzold =  406.98763138319924  alpha =  0.04816261141693202
 delta_qm =   0.216281E-01 delta_en =   0.315748E+03 tol =   0.100000E-03
 Iteration #          3
  pAp =  84.1878487225853  rzold =  2.9118568533286244  alpha =  0.03458761445400199
 delta_qm =   0.155261E-01 delta_en =   0.162715E+03 tol =   0.100000E-03
 Iteration #          4
  pAp =  1.3116068829739067  rzold =  0.26700604696964064  alpha =  0.20357170310378167
 delta_qm =   0.100863E-01 delta_en =   0.686700E+02 tol =   0.100000E-03
 Iteration #          5
  pAp =  0.09733785975771062  rzold =  0.03452693355009507  alpha =  0.3547122736830056
 delta_qm =   0.612097E-02 delta_en =   0.252898E+02 tol =   0.100000E-03
 Iteration #          6
  pAp =  0.029439455358898078  rzold =  0.012997333733416445  alpha =  0.4414936884859183
 delta_qm =   0.448438E-02 delta_en =   0.135740E+02 tol =   0.100000E-03
 Iteration #          7
  pAp =  0.018321780811609612  rzold =  0.007869257022893365  alpha =  0.42950284711991554
 delta_qm =   0.271837E-02 delta_en =   0.498794E+01 tol =   0.100000E-03
 Iteration #          8
  pAp =  0.01159924655981197  rzold =  0.006567386112161421  alpha =  0.5661907502609275
 delta_qm =   0.258133E-02 delta_en =   0.449772E+01 tol =   0.100000E-03
 Iteration #          9
  pAp =  0.004294818942360572  rzold =  0.002840514544492758  alpha =  0.6613816746676447
 delta_qm =   0.237687E-02 delta_en =   0.381343E+01 tol =   0.100000E-03
 Iteration #         10
  pAp =  0.00336374257735641  rzold =  0.0017373568150618034  alpha =  0.5164951761639278
 delta_qm =   0.212290E-02 delta_en =   0.304201E+01 tol =   0.100000E-03
 Iteration #         11
  pAp =  0.001990115558539199  rzold =  0.001430706213542474  alpha =  0.7189060993988976
 delta_qm =   0.183096E-02 delta_en =   0.226288E+01 tol =   0.100000E-03
 Iteration #         12
  pAp =  0.002158586646598023  rzold =  0.0018046897626802024  alpha =  0.8360515736185204
 delta_qm =   0.222113E-02 delta_en =   0.333007E+01 tol =   0.100000E-03
 Iteration #         13
  pAp =  0.0017625852753274044  rzold =  0.0010926867197784814  alpha =  0.6199341019545919
 delta_qm =   0.190626E-02 delta_en =   0.245283E+01 tol =   0.100000E-03
 Iteration #         14
  pAp =  0.009285818805587024  rzold =  0.0007707117483565707  alpha =  0.08299879251282122
 delta_qm =   0.182779E-02 delta_en =   0.225505E+01 tol =   0.100000E-03
 Iteration #         15
  pAp =  0.0031844983909423774  rzold =  0.001162424151038497  alpha =  0.365025824583477
 delta_qm =   0.100969E-02 delta_en =   0.688140E+00 tol =   0.100000E-03
 Iteration #         16
  pAp =  0.001397799215215917  rzold =  0.0004047804619866587  alpha =  0.2895841245154316
 delta_qm =   0.117478E-02 delta_en =   0.931576E+00 tol =   0.100000E-03
 Iteration #         17
  pAp =  0.008893863956659146  rzold =  0.0013054737324774699  alpha =  0.1467836408156453
 delta_qm =   0.108350E-02 delta_en =   0.792432E+00 tol =   0.100000E-03
 Iteration #         18
  pAp =  0.00041901048533846103  rzold =  0.0003077558643065955  alpha =  0.7344824892818655
 delta_qm =   0.103476E-02 delta_en =   0.722743E+00 tol =   0.100000E-03
 Iteration #         19
  pAp =  0.00020676055548229867  rzold =  0.000201323181126485  alpha =  0.973702071252758
 delta_qm =   0.752405E-03 delta_en =   0.382127E+00 tol =   0.100000E-03
 Iteration #         20
  pAp =  0.00033084609589117454  rzold =  0.00022181629446033635  alpha =  0.6704516003516588
 delta_qm =   0.781384E-03 delta_en =   0.412128E+00 tol =   0.100000E-03
 Iteration #         21
  pAp =  0.00013281210586389147  rzold =  0.000094860665858635  alpha =  0.7142471331329551
 delta_qm =   0.518230E-03 delta_en =   0.181280E+00 tol =   0.100000E-03
 Iteration #         22
  pAp =  0.00009045702750532982  rzold =  0.000048218434549001036  alpha =  0.5330534937836638
 delta_qm =   0.267319E-03 delta_en =   0.482350E-01 tol =   0.100000E-03
 Iteration #         23
  pAp =  0.00002309656910289407  rzold =  0.000013870864961098303  alpha =  0.6005595419520661
 delta_qm =   0.134215E-03 delta_en =   0.121592E-01 tol =   0.100000E-03
 Iteration #         24
  pAp =  0.000006041168407199402  rzold =  0.000004192890877846737  alpha =  0.6940529704237298
 delta_qm =   0.743617E-04 delta_en =   0.373252E-02 tol =   0.100000E-03
 Iteration #         25
  pAp =  0.000004270291647606613  rzold =  0.0000010866995437299622  alpha =  0.2544789989552655
 delta_qm =   0.600411E-04 delta_en =   0.243333E-02 tol =   0.100000E-03
 Iteration #         26
  pAp =  0.0000616229383599151  rzold =  0.000004178340074389704  alpha =  0.06780494707970075
 delta_qm =   0.419009E-04 delta_en =   0.118509E-02 tol =   0.100000E-03
 Iteration #         27
  pAp =  4.5724734095181053E-7  rzold =  2.6222670526545065E-7  alpha =  0.5734898418864437
 delta_qm =   0.184587E-04 delta_en =   0.229987E-03 tol =   0.100000E-03
 Iteration #         28
  pAp =  1.232962374763276E-7  rzold =  7.712921162968478E-8  alpha =  0.6255601404259663
 delta_qm =   0.107346E-04 delta_en =   0.777820E-04 tol =   0.100000E-03
 Charges are converged, exit!

%%%% ELECTRONS %%%%%%%%%%%%%%%%%%%%%%%%%%%%%%%%%%%%%%%%%%%%%%%%%%%%%%%%%%%%%%%%%
 number of electrons        =         89
 total electronic charge    =     89.0000000
 number of spin components  =  1

%%%% BOUNDARY %%%%%%%%%%%%%%%%%%%%%%%%%%%%%%%%%%%%%%%%%%%%%%%%%%%%%%%%%%%%%%%%%%
 boundary mode              = electronic           
 boundary is built as a function of a smooth density
 function type              =  2 
 using the modified SCCS function with parameters 
 rhomax                     =      0.0050000 
 rhomin                     =      0.0001000 

%%%% DIELECTRIC %%%%%%%%%%%%%%%%%%%%%%%%%%%%%%%%%%%%%%%%%%%%%%%%%%%%%%%%%%%%%%%%%
 dielectric build on homogeneous background
 environment bulk permitt.  =    100.0000000 
 dielectric flags
 need gradient              =  F 
 need factor depend. sqrt   =  T 
 need gradient of logarithm =  T 

%%%% COMPUTE ELECTROSTATIC POTENTIAL %%%%%%%%%%%%%%%%%%%%%%%%%%%%%%%%%%%%%%%%%%%
 Warning: bad guess with residual norm =   0.996778E+05, reset to no guess
 Iteration #          1
  pAp =  1293.1255268218995  rzold =  1274.816871262699  alpha =  0.9858415481100296
 delta_qm =   0.528615E+00 delta_en =   0.188618E+06 tol =   0.100000E-03
 Iteration #          2
  pAp =  19642.139658838827  rzold =  576.0736320489978  alpha =  0.029328456168967752
 delta_qm =   0.817442E-01 delta_en =   0.451043E+04 tol =   0.100000E-03
 Iteration #          3
  pAp =  263.02288980868184  rzold =  9.324133305049221  alpha =  0.03544989301817583
 delta_qm =   0.767758E-01 delta_en =   0.397881E+04 tol =   0.100000E-03
 Iteration #          4
  pAp =  12.495382079286266  rzold =  1.461389242482241  alpha =  0.11695434627043556
 delta_qm =   0.380306E-01 delta_en =   0.976269E+03 tol =   0.100000E-03
 Iteration #          5
  pAp =  0.24442173937155606  rzold =  0.07995942545230572  alpha =  0.3271371264188409
 delta_qm =   0.219732E-01 delta_en =   0.325904E+03 tol =   0.100000E-03
 Iteration #          6
  pAp =  0.08198658565427959  rzold =  0.02982654649109195  alpha =  0.3637978853865717
 delta_qm =   0.161548E-01 delta_en =   0.176161E+03 tol =   0.100000E-03
 Iteration #          7
  pAp =  0.022558905998832174  rzold =  0.015292185953864801  alpha =  0.6778779943786478
 delta_qm =   0.124662E-01 delta_en =   0.104899E+03 tol =   0.100000E-03
 Iteration #          8
  pAp =  0.03171897447545726  rzold =  0.01839572199122454  alpha =  0.5799595445766488
 delta_qm =   0.140746E-01 delta_en =   0.133714E+03 tol =   0.100000E-03
 Iteration #          9
  pAp =  0.028226636772495102  rzold =  0.013998767035502353  alpha =  0.49594172867038766
 delta_qm =   0.160364E-01 delta_en =   0.173586E+03 tol =   0.100000E-03
 Iteration #         10
  pAp =  0.015645267120478288  rzold =  0.00901235561325396  alpha =  0.5760435755972215
 delta_qm =   0.160011E-01 delta_en =   0.172825E+03 tol =   0.100000E-03
 Iteration #         11
  pAp =  0.004267363156313284  rzold =  0.00993130496852212  alpha =  2.327269699048089
 delta_qm =   0.332556E-01 delta_en =   0.746508E+03 tol =   0.100000E-03
 Iteration #         12
  pAp =  -0.049129927166256235  rzold =  0.07508968143438485  alpha =  -1.5283898382401528
 delta_qm =   0.841363E-01 delta_en =   0.477827E+04 tol =   0.100000E-03
 Iteration #         13
  pAp =  3.953461273537986  rzold =  0.48135255179676134  alpha =  0.12175471529685553
 delta_qm =   0.230641E-01 delta_en =   0.359068E+03 tol =   0.100000E-03
 Iteration #         14
  pAp =  4.236701592860195  rzold =  0.13389060296544522  alpha =  0.03160255685486118
 delta_qm =   0.202442E-01 delta_en =   0.276633E+03 tol =   0.100000E-03
 Iteration #         15
  pAp =  0.0436638504382671  rzold =  0.016944625885913084  alpha =  0.38806989571086414
 delta_qm =   0.112836E-01 delta_en =   0.859401E+02 tol =   0.100000E-03
 Iteration #         16
  pAp =  0.1260031829831401  rzold =  0.010631744456011227  alpha =  0.08437679274684523
 delta_qm =   0.832864E-02 delta_en =   0.468222E+02 tol =   0.100000E-03
 Iteration #         17
  pAp =  0.06380683846189647  rzold =  0.013857016253523  alpha =  0.21717133441422573
 delta_qm =   0.736621E-02 delta_en =   0.366262E+02 tol =   0.100000E-03
 Iteration #         18
  pAp =  0.006226049706959166  rzold =  0.0027966751308775473  alpha =  0.4491893355351089
 delta_qm =   0.565608E-02 delta_en =   0.215941E+02 tol =   0.100000E-03
 Iteration #         19
  pAp =  0.002250746345184478  rzold =  0.0015026155956692601  alpha =  0.6676077021669455
 delta_qm =   0.486280E-02 delta_en =   0.159616E+02 tol =   0.100000E-03
 Iteration #         20
  pAp =  0.0010654124672769417  rzold =  0.0009522441811723834  alpha =  0.8937798368421556
 delta_qm =   0.433753E-02 delta_en =   0.126996E+02 tol =   0.100000E-03
 Iteration #         21
  pAp =  0.0014817925102295014  rzold =  0.000967409717956161  alpha =  0.6528644943726485
 delta_qm =   0.449168E-02 delta_en =   0.136183E+02 tol =   0.100000E-03
 Iteration #         22
  pAp =  0.001476741613192031  rzold =  0.0008922787193142012  alpha =  0.6042212878294315
 delta_qm =   0.383735E-02 delta_en =   0.993953E+01 tol =   0.100000E-03
 Iteration #         23
  pAp =  0.0009759163449447133  rzold =  0.0008213491090843943  alpha =  0.8416183552401969
 delta_qm =   0.409053E-02 delta_en =   0.112944E+02 tol =   0.100000E-03
 Iteration #         24
  pAp =  0.0007802513753644869  rzold =  0.0008645396231004918  alpha =  1.1080270415372615
 delta_qm =   0.560865E-02 delta_en =   0.212335E+02 tol =   0.100000E-03
 Iteration #         25
  pAp =  0.0013682398936472968  rzold =  0.0012295008210129077  alpha =  0.8986003307763857
 delta_qm =   0.600759E-02 delta_en =   0.243615E+02 tol =   0.100000E-03
 Iteration #         26
  pAp =  0.06333989767031174  rzold =  0.0032451657035624535  alpha =  0.05123414818972002
 delta_qm =   0.648142E-02 delta_en =   0.283559E+02 tol =   0.100000E-03
 Iteration #         27
  pAp =  0.004195762902126002  rzold =  0.00275624294998937  alpha =  0.6569110348425017
 delta_qm =   0.680717E-02 delta_en =   0.312778E+02 tol =   0.100000E-03
 Iteration #         28
  pAp =  0.005200916085223459  rzold =  0.0029037101181864544  alpha =  0.5583074348067847
 delta_qm =   0.823658E-02 delta_en =   0.457929E+02 tol =   0.100000E-03
 Iteration #         29
  pAp =  0.30612237106428186  rzold =  0.01942824764983046  alpha =  0.06346562514292943
 delta_qm =   0.882478E-02 delta_en =   0.525668E+02 tol =   0.100000E-03
 Iteration #         30
  pAp =  0.006122468334030758  rzold =  0.004600868542444866  alpha =  0.7514728196913125
 delta_qm =   0.949684E-02 delta_en =   0.608782E+02 tol =   0.100000E-03
 Iteration #         31
  pAp =  0.004241461577714693  rzold =  0.0034581824564793363  alpha =  0.8153280167971275
 delta_qm =   0.784435E-02 delta_en =   0.415353E+02 tol =   0.100000E-03
 Iteration #         32
  pAp =  0.00333953745582709  rzold =  0.0025730719834049674  alpha =  0.7704875353068034
 delta_qm =   0.655517E-02 delta_en =   0.290049E+02 tol =   0.100000E-03
 Iteration #         33
  pAp =  0.0027194247353422465  rzold =  0.0018338986764143202  alpha =  0.6743700800322092
 delta_qm =   0.539326E-02 delta_en =   0.196339E+02 tol =   0.100000E-03
 Iteration #         34
  pAp =  0.002929674354492669  rzold =  0.001340369761890811  alpha =  0.4575149315948197
 delta_qm =   0.455460E-02 delta_en =   0.140025E+02 tol =   0.100000E-03
 Iteration #         35
  pAp =  0.004583998772361905  rzold =  0.0014114161753805469  alpha =  0.30790064427816477
 delta_qm =   0.392535E-02 delta_en =   0.104006E+02 tol =   0.100000E-03
 Iteration #         36
  pAp =  0.0011247831740653896  rzold =  0.0007631633639567407  alpha =  0.6784982044124835
 delta_qm =   0.294451E-02 delta_en =   0.585235E+01 tol =   0.100000E-03
 Iteration #         37
  pAp =  0.0006359200281737337  rzold =  0.00043049293867084416  alpha =  0.6769608120492051
 delta_qm =   0.243844E-02 delta_en =   0.401353E+01 tol =   0.100000E-03
 Iteration #         38
  pAp =  0.0005141324227213716  rzold =  0.00022454464489034525  alpha =  0.4367447664588054
 delta_qm =   0.178509E-02 delta_en =   0.215092E+01 tol =   0.100000E-03
 Iteration #         39
  pAp =  0.030484551543752066  rzold =  0.0013054677242778298  alpha =  0.04282391106866687
 delta_qm =   0.149435E-02 delta_en =   0.150733E+01 tol =   0.100000E-03
 Iteration #         40
  pAp =  0.00011635380674117074  rzold =  0.00008130056342119956  alpha =  0.698735741427462
 delta_qm =   0.896832E-03 delta_en =   0.542908E+00 tol =   0.100000E-03
 Iteration #         41
  pAp =  0.0005207176622849212  rzold =  0.000050156024215489855  alpha =  0.09632095826249498
 delta_qm =   0.848829E-03 delta_en =   0.486345E+00 tol =   0.100000E-03
 Iteration #         42
  pAp =  0.0003253580223696109  rzold =  0.0000847859052068158  alpha =  0.2605926375790972
 delta_qm =   0.604503E-03 delta_en =   0.246661E+00 tol =   0.100000E-03
 Iteration #         43
  pAp =  0.00001993287285279819  rzold =  0.000013202006351750092  alpha =  0.6623233113081733
 delta_qm =   0.428257E-03 delta_en =   0.123798E+00 tol =   0.100000E-03
 Iteration #         44
  pAp =  0.000011921529811441123  rzold =  0.0000074471821633356286  alpha =  0.6246834325061662
 delta_qm =   0.275684E-03 delta_en =   0.513011E-01 tol =   0.100000E-03
 Iteration #         45
  pAp =  0.000004818413874923532  rzold =  0.000003341644457605924  alpha =  0.6935154481014679
 delta_qm =   0.186477E-03 delta_en =   0.234722E-01 tol =   0.100000E-03
 Iteration #         46
  pAp =  0.000002371671177662164  rzold =  0.000001502942613614301  alpha =  0.6337061510760535
 delta_qm =   0.122331E-03 delta_en =   0.101012E-01 tol =   0.100000E-03
 Iteration #         47
  pAp =  7.681001302660347E-7  rzold =  5.215156246469818E-7  alpha =  0.6789682804328554
 delta_qm =   0.705484E-04 delta_en =   0.335953E-02 tol =   0.100000E-03
 Iteration #         48
  pAp =  3.9124164801524876E-7  rzold =  2.2746637970596411E-7  alpha =  0.5813961291183871
 delta_qm =   0.489938E-04 delta_en =   0.162026E-02 tol =   0.100000E-03
 Iteration #         49
  pAp =  5.330000833981621E-7  rzold =  1.6810767817433223E-7  alpha =  0.3153989716147048
 delta_qm =   0.412155E-04 delta_en =   0.114663E-02 tol =   0.100000E-03
 Iteration #         50
  pAp =  1.4938477963299109E-7  rzold =  7.144797371259423E-8  alpha =  0.47828148147440325
 delta_qm =   0.306268E-04 delta_en =   0.633151E-03 tol =   0.100000E-03
 Iteration #         51
  pAp =  0.000007453361428668413  rzold =  2.6442114361701093E-7  alpha =  0.03547676389339559
 delta_qm =   0.266738E-04 delta_en =   0.480256E-03 tol =   0.100000E-03
 Iteration #         52
  pAp =  3.350405947898921E-8  rzold =  2.4008800808377172E-8  alpha =  0.7165937854018368
 delta_qm =   0.147887E-04 delta_en =   0.147626E-03 tol =   0.100000E-03
 Iteration #         53
  pAp =  6.00631379210107E-8  rzold =  1.1842651150864817E-8  alpha =  0.19717003741028552
 delta_qm =   0.140390E-04 delta_en =   0.133038E-03 tol =   0.100000E-03
 Iteration #         54
  pAp =  3.6977875959767287E-7  rzold =  4.221918351553058E-8  alpha =  0.11417417150045597
 delta_qm =   0.101368E-04 delta_en =   0.693601E-04 tol =   0.100000E-03
 Charges are converged, exit!

%%%% ELECTRONS %%%%%%%%%%%%%%%%%%%%%%%%%%%%%%%%%%%%%%%%%%%%%%%%%%%%%%%%%%%%%%%%%
 number of electrons        =         89
 total electronic charge    =     89.0000000
 number of spin components  =  1

%%%% BOUNDARY %%%%%%%%%%%%%%%%%%%%%%%%%%%%%%%%%%%%%%%%%%%%%%%%%%%%%%%%%%%%%%%%%%
 boundary mode              = electronic           
 boundary is built as a function of a smooth density
 function type              =  2 
 using the modified SCCS function with parameters 
 rhomax                     =      0.0050000 
 rhomin                     =      0.0001000 

%%%% DIELECTRIC %%%%%%%%%%%%%%%%%%%%%%%%%%%%%%%%%%%%%%%%%%%%%%%%%%%%%%%%%%%%%%%%%
 dielectric build on homogeneous background
 environment bulk permitt.  =    100.0000000 
 dielectric flags
 need gradient              =  F 
 need factor depend. sqrt   =  T 
 need gradient of logarithm =  T 

%%%% COMPUTE ELECTROSTATIC POTENTIAL %%%%%%%%%%%%%%%%%%%%%%%%%%%%%%%%%%%%%%%%%%%
 Warning: bad guess with residual norm =   0.152209E+04, reset to no guess
 Iteration #          1
  pAp =  1287.919993534  rzold =  1271.997102579898  alpha =  0.9876367390567404
 delta_qm =   0.227508E+00 delta_en =   0.349378E+05 tol =   0.100000E-03
 Iteration #          2
  pAp =  14113.209685381633  rzold =  449.49271598130616  alpha =  0.031849077991584554
 delta_qm =   0.526959E-01 delta_en =   0.187438E+04 tol =   0.100000E-03
 Iteration #          3
  pAp =  481.9883232458461  rzold =  18.052824804395552  alpha =  0.03745490073872061
 delta_qm =   0.318163E-01 delta_en =   0.683286E+03 tol =   0.100000E-03
 Iteration #          4
  pAp =  6.719074107403939  rzold =  0.9034287739996288  alpha =  0.1344573314058428
 delta_qm =   0.168523E-01 delta_en =   0.191700E+03 tol =   0.100000E-03
 Iteration #          5
  pAp =  0.1343920084940247  rzold =  0.04426836621447238  alpha =  0.329397310975084
 delta_qm =   0.111688E-01 delta_en =   0.842011E+02 tol =   0.100000E-03
 Iteration #          6
  pAp =  0.04075195431192268  rzold =  0.018034381312912524  alpha =  0.442540281010186
 delta_qm =   0.733858E-02 delta_en =   0.363520E+02 tol =   0.100000E-03
 Iteration #          7
  pAp =  0.022528168518163666  rzold =  0.011472982404237823  alpha =  0.5092727531307112
 delta_qm =   0.473223E-02 delta_en =   0.151160E+02 tol =   0.100000E-03
 Iteration #          8
  pAp =  0.019045889072566647  rzold =  0.010036659931215807  alpha =  0.5269725079766652
 delta_qm =   0.422457E-02 delta_en =   0.120467E+02 tol =   0.100000E-03
 Iteration #          9
  pAp =  0.007027361267032342  rzold =  0.004097598775345739  alpha =  0.5830920909913825
 delta_qm =   0.385905E-02 delta_en =   0.100523E+02 tol =   0.100000E-03
 Iteration #         10
  pAp =  0.0045678198505689285  rzold =  0.0020658827891006375  alpha =  0.45226888465037185
 delta_qm =   0.347183E-02 delta_en =   0.813617E+01 tol =   0.100000E-03
 Iteration #         11
  pAp =  0.0021383807990893165  rzold =  0.0013469708445526516  alpha =  0.6299022349650227
 delta_qm =   0.279057E-02 delta_en =   0.525640E+01 tol =   0.100000E-03
 Iteration #         12
  pAp =  0.0023237696865601237  rzold =  0.0014484316895828574  alpha =  0.6233112076296041
 delta_qm =   0.249490E-02 delta_en =   0.420156E+01 tol =   0.100000E-03
 Iteration #         13
  pAp =  0.0021518319699080947  rzold =  0.0009224266183723463  alpha =  0.4286703754158571
 delta_qm =   0.201483E-02 delta_en =   0.274019E+01 tol =   0.100000E-03
 Iteration #         14
  pAp =  0.09063387394279689  rzold =  0.003601663901482001  alpha =  0.03973860704393121
 delta_qm =   0.198810E-02 delta_en =   0.266796E+01 tol =   0.100000E-03
 Iteration #         15
  pAp =  0.0006732817161174064  rzold =  0.00037123379415381975  alpha =  0.5513795863856256
 delta_qm =   0.116237E-02 delta_en =   0.911992E+00 tol =   0.100000E-03
 Iteration #         16
  pAp =  0.00024524083770240796  rzold =  0.0001593255265900641  alpha =  0.6496696393746649
 delta_qm =   0.638759E-03 delta_en =   0.275409E+00 tol =   0.100000E-03
 Iteration #         17
  pAp =  0.00017005890583667485  rzold =  0.00008532595369801828  alpha =  0.5017435180958156
 delta_qm =   0.631317E-03 delta_en =   0.269029E+00 tol =   0.100000E-03
 Iteration #         18
  pAp =  0.002930661449568338  rzold =  0.00016799558219500262  alpha =  0.05732343536976848
 delta_qm =   0.574423E-03 delta_en =   0.222724E+00 tol =   0.100000E-03
 Iteration #         19
  pAp =  0.000040569661648023185  rzold =  0.00003230686945230167  alpha =  0.7963307589940393
 delta_qm =   0.444813E-03 delta_en =   0.133555E+00 tol =   0.100000E-03
 Iteration #         20
  pAp =  0.00004760448082575778  rzold =  0.00003227126838969276  alpha =  0.6779040088224522
 delta_qm =   0.454631E-03 delta_en =   0.139515E+00 tol =   0.100000E-03
 Iteration #         21
  pAp =  0.000029615569890875213  rzold =  0.000029543862252300838  alpha =  0.9975787182607461
 delta_qm =   0.595249E-03 delta_en =   0.239167E+00 tol =   0.100000E-03
 Iteration #         22
  pAp =  0.00004433595472326439  rzold =  0.00003841657053118668  alpha =  0.8664879502646272
 delta_qm =   0.568873E-03 delta_en =   0.218441E+00 tol =   0.100000E-03
 Iteration #         23
  pAp =  0.000029932581735703565  rzold =  0.000028311182878291053  alpha =  0.9458316401929838
 delta_qm =   0.353251E-03 delta_en =   0.842305E-01 tol =   0.100000E-03
 Iteration #         24
  pAp =  0.0000407405941883503  rzold =  0.00002280932909806953  alpha =  0.5598673645410851
 delta_qm =   0.288674E-03 delta_en =   0.562495E-01 tol =   0.100000E-03
 Iteration #         25
  pAp =  0.0008528715883330603  rzold =  0.000034235209978859055  alpha =  0.04014110734509501
 delta_qm =   0.269880E-03 delta_en =   0.491639E-01 tol =   0.100000E-03
 Iteration #         26
  pAp =  0.000029654442964868065  rzold =  0.00001279279413230464  alpha =  0.43139552975115397
 delta_qm =   0.177307E-03 delta_en =   0.212204E-01 tol =   0.100000E-03
 Iteration #         27
  pAp =  0.00000676869419873047  rzold =  0.000003277919586974749  alpha =  0.48427650751153045
 delta_qm =   0.104979E-03 delta_en =   0.743889E-02 tol =   0.100000E-03
 Iteration #         28
  pAp =  0.0000018266796249429035  rzold =  0.0000011090185520758821  alpha =  0.6071226376713688
 delta_qm =   0.558714E-04 delta_en =   0.210709E-02 tol =   0.100000E-03
 Iteration #         29
  pAp =  8.200114729727129E-7  rzold =  4.4391037905260933E-7  alpha =  0.5413465465834782
 delta_qm =   0.346736E-04 delta_en =   0.811524E-03 tol =   0.100000E-03
 Iteration #         30
  pAp =  2.5328430902558507E-7  rzold =  1.4588402003087822E-7  alpha =  0.5759694336854558
 delta_qm =   0.223113E-04 delta_en =   0.336012E-03 tol =   0.100000E-03
 Iteration #         31
  pAp =  5.840066750737636E-7  rzold =  5.71802477805123E-8  alpha =  0.09791026407924207
 delta_qm =   0.198604E-04 delta_en =   0.266243E-03 tol =   0.100000E-03
 Iteration #         32
  pAp =  2.221651447965186E-7  rzold =  6.827018096511021E-8  alpha =  0.3072947425107524
 delta_qm =   0.105446E-04 delta_en =   0.750520E-04 tol =   0.100000E-03
 Charges are converged, exit!

%%%% ELECTRONS %%%%%%%%%%%%%%%%%%%%%%%%%%%%%%%%%%%%%%%%%%%%%%%%%%%%%%%%%%%%%%%%%
 number of electrons        =         89
 total electronic charge    =     89.0000000
 number of spin components  =  1

%%%% BOUNDARY %%%%%%%%%%%%%%%%%%%%%%%%%%%%%%%%%%%%%%%%%%%%%%%%%%%%%%%%%%%%%%%%%%
 boundary mode              = electronic           
 boundary is built as a function of a smooth density
 function type              =  2 
 using the modified SCCS function with parameters 
 rhomax                     =      0.0050000 
 rhomin                     =      0.0001000 

%%%% DIELECTRIC %%%%%%%%%%%%%%%%%%%%%%%%%%%%%%%%%%%%%%%%%%%%%%%%%%%%%%%%%%%%%%%%%
 dielectric build on homogeneous background
 environment bulk permitt.  =    100.0000000 
 dielectric flags
 need gradient              =  F 
 need factor depend. sqrt   =  T 
 need gradient of logarithm =  T 

%%%% COMPUTE ELECTROSTATIC POTENTIAL %%%%%%%%%%%%%%%%%%%%%%%%%%%%%%%%%%%%%%%%%%%
 Warning: bad guess with residual norm =   0.475138E+04, reset to no guess
 Iteration #          1
  pAp =  1287.9431602257876  rzold =  1270.5879769381083  alpha =  0.9865248841535548
 delta_qm =   0.286062E+00 delta_en =   0.552361E+05 tol =   0.100000E-03
 Iteration #          2
  pAp =  17719.70969740576  rzold =  527.369554370555  alpha =  0.029761749113066116
 delta_qm =   0.630642E-01 delta_en =   0.268454E+04 tol =   0.100000E-03
 Iteration #          3
  pAp =  550.7180732333342  rzold =  19.474063967507913  alpha =  0.03536122185562799
 delta_qm =   0.401695E-01 delta_en =   0.108917E+04 tol =   0.100000E-03
 Iteration #          4
  pAp =  7.455575507045264  rzold =  0.9478448554466414  alpha =  0.12713235276753088
 delta_qm =   0.227073E-01 delta_en =   0.348045E+03 tol =   0.100000E-03
 Iteration #          5
  pAp =  0.1458630728235511  rzold =  0.04654020380239845  alpha =  0.31906775924498454
 delta_qm =   0.143628E-01 delta_en =   0.139246E+03 tol =   0.100000E-03
 Iteration #          6
  pAp =  0.04825095580338307  rzold =  0.02036537867616603  alpha =  0.4220720260786654
 delta_qm =   0.973443E-02 delta_en =   0.639624E+02 tol =   0.100000E-03
 Iteration #          7
  pAp =  0.024160363921107084  rzold =  0.013526620348628471  alpha =  0.5598682367864205
 delta_qm =   0.648573E-02 delta_en =   0.283937E+02 tol =   0.100000E-03
 Iteration #          8
  pAp =  0.024552658171435742  rzold =  0.013954021210468103  alpha =  0.5683303662290236
 delta_qm =   0.699580E-02 delta_en =   0.330353E+02 tol =   0.100000E-03
 Iteration #          9
  pAp =  0.013621903413129579  rzold =  0.00792158992265047  alpha =  0.5815332617184161
 delta_qm =   0.704527E-02 delta_en =   0.335042E+02 tol =   0.100000E-03
 Iteration #         10
  pAp =  0.011973638625987897  rzold =  0.005336925476543526  alpha =  0.44572294548460184
 delta_qm =   0.656552E-02 delta_en =   0.290966E+02 tol =   0.100000E-03
 Iteration #         11
  pAp =  0.004876935576914121  rzold =  0.0036523386749156314  alpha =  0.748900332455621
 delta_qm =   0.570037E-02 delta_en =   0.219336E+02 tol =   0.100000E-03
 Iteration #         12
  pAp =  0.007690084352623653  rzold =  0.00504466386447701  alpha =  0.655995907607425
 delta_qm =   0.601787E-02 delta_en =   0.244449E+02 tol =   0.100000E-03
 Iteration #         13
  pAp =  0.013131875019175858  rzold =  0.00414910011746325  alpha =  0.31595641227201104
 delta_qm =   0.581347E-02 delta_en =   0.228126E+02 tol =   0.100000E-03
 Iteration #         14
  pAp =  0.4378575171942808  rzold =  0.022360561386298577  alpha =  0.05106812263857291
 delta_qm =   0.537930E-02 delta_en =   0.195324E+02 tol =   0.100000E-03
 Iteration #         15
  pAp =  0.003028794818673603  rzold =  0.0018454341630935495  alpha =  0.6092965266962912
 delta_qm =   0.310296E-02 delta_en =   0.649914E+01 tol =   0.100000E-03
 Iteration #         16
  pAp =  0.0019720420762227944  rzold =  0.0009535727377772197  alpha =  0.4835458377255681
 delta_qm =   0.175958E-02 delta_en =   0.208989E+01 tol =   0.100000E-03
 Iteration #         17
  pAp =  0.048747991388010045  rzold =  0.0028149561487896776  alpha =  0.05774506946109863
 delta_qm =   0.163102E-02 delta_en =   0.179564E+01 tol =   0.100000E-03
 Iteration #         18
  pAp =  0.0010920432086205323  rzold =  0.0004771022338671567  alpha =  0.43688952058026315
 delta_qm =   0.137431E-02 delta_en =   0.127489E+01 tol =   0.100000E-03
 Iteration #         19
  pAp =  0.0002011027554079171  rzold =  0.00012926430439434214  alpha =  0.6427773907530121
 delta_qm =   0.826881E-03 delta_en =   0.461519E+00 tol =   0.100000E-03
 Iteration #         20
  pAp =  0.0001336504002467323  rzold =  0.00006748827880243504  alpha =  0.504961292131148
 delta_qm =   0.565693E-03 delta_en =   0.216006E+00 tol =   0.100000E-03
 Iteration #         21
  pAp =  0.000045996224565540186  rzold =  0.00003616663754595578  alpha =  0.7862957859600369
 delta_qm =   0.571640E-03 delta_en =   0.220571E+00 tol =   0.100000E-03
 Iteration #         22
  pAp =  0.000039066570711228  rzold =  0.00003350476928916356  alpha =  0.8576327197189606
 delta_qm =   0.701528E-03 delta_en =   0.332195E+00 tol =   0.100000E-03
 Iteration #         23
  pAp =  0.000027507695510877433  rzold =  0.00003373061674248953  alpha =  1.2262247387881458
 delta_qm =   0.756502E-03 delta_en =   0.386300E+00 tol =   0.100000E-03
 Iteration #         24
  pAp =  0.00006899164476756265  rzold =  0.0000665669005459407  alpha =  0.9648545236196198
 delta_qm =   0.102860E-02 delta_en =   0.714160E+00 tol =   0.100000E-03
 Iteration #         25
  pAp =  0.007590701532135764  rzold =  0.0003364595855664138  alpha =  0.044325229248178014
 delta_qm =   0.112824E-02 delta_en =   0.859232E+00 tol =   0.100000E-03
 Iteration #         26
  pAp =  0.00023629676296560738  rzold =  0.00018615151737376589  alpha =  0.7877869973227689
 delta_qm =   0.157375E-02 delta_en =   0.167176E+01 tol =   0.100000E-03
 Iteration #         27
  pAp =  0.0002068619556410181  rzold =  0.0001726045875744774  alpha =  0.8343950294756476
 delta_qm =   0.141931E-02 delta_en =   0.135975E+01 tol =   0.100000E-03
 Iteration #         28
  pAp =  0.00019484633066820287  rzold =  0.0001549436801515211  alpha =  0.7952096383861053
 delta_qm =   0.102249E-02 delta_en =   0.705697E+00 tol =   0.100000E-03
 Iteration #         29
  pAp =  0.000362504409775702  rzold =  0.00012823573697048432  alpha =  0.35374945383376055
 delta_qm =   0.875546E-03 delta_en =   0.517442E+00 tol =   0.100000E-03
 Iteration #         30
  pAp =  0.0062675271521067276  rzold =  0.0004770002656886832  alpha =  0.07610661335999913
 delta_qm =   0.817973E-03 delta_en =   0.451629E+00 tol =   0.100000E-03
 Iteration #         31
  pAp =  0.00017924328332326035  rzold =  0.00008412224167718355  alpha =  0.46931879464331944
 delta_qm =   0.709861E-03 delta_en =   0.340135E+00 tol =   0.100000E-03
 Iteration #         32
  pAp =  0.0000692138500467129  rzold =  0.00003183972200692047  alpha =  0.4600195190042401
 delta_qm =   0.468149E-03 delta_en =   0.147936E+00 tol =   0.100000E-03
 Iteration #         33
  pAp =  0.00013894099838648774  rzold =  0.0000373542386965098  alpha =  0.26884964934973843
 delta_qm =   0.318899E-03 delta_en =   0.686451E-01 tol =   0.100000E-03
 Iteration #         34
  pAp =  0.00001753670386844652  rzold =  0.000010630817853816856  alpha =  0.6062038758004404
 delta_qm =   0.218177E-03 delta_en =   0.321309E-01 tol =   0.100000E-03
 Iteration #         35
  pAp =  0.000006930661130131668  rzold =  0.0000039871093857126156  alpha =  0.5752855767797248
 delta_qm =   0.152090E-03 delta_en =   0.156137E-01 tol =   0.100000E-03
 Iteration #         36
  pAp =  0.000003597191731610772  rzold =  0.0000015233961546264157  alpha =  0.4234959569264495
 delta_qm =   0.998571E-04 delta_en =   0.673073E-02 tol =   0.100000E-03
 Iteration #         37
  pAp =  0.00016637806931380343  rzold =  0.000006113231182920137  alpha =  0.036743010711285835
 delta_qm =   0.810520E-04 delta_en =   0.443436E-02 tol =   0.100000E-03
 Iteration #         38
  pAp =  9.386040091099409E-7  rzold =  5.103836396989971E-7  alpha =  0.5437688681758173
 delta_qm =   0.442460E-04 delta_en =   0.132145E-02 tol =   0.100000E-03
 Iteration #         39
  pAp =  2.9412759106380344E-7  rzold =  1.805859915196069E-7  alpha =  0.6139716130216203
 delta_qm =   0.266849E-04 delta_en =   0.480656E-03 tol =   0.100000E-03
 Iteration #         40
  pAp =  9.790421884194704E-8  rzold =  5.1567119478166566E-8  alpha =  0.526709881230089
 delta_qm =   0.160485E-04 delta_en =   0.173850E-03 tol =   0.100000E-03
 Iteration #         41
  pAp =  2.9658992855312273E-8  rzold =  1.707495827299225E-8  alpha =  0.5757093086838896
 delta_qm =   0.783655E-05 delta_en =   0.414527E-04 tol =   0.100000E-03
 Charges are converged, exit!

%%%% ELECTRONS %%%%%%%%%%%%%%%%%%%%%%%%%%%%%%%%%%%%%%%%%%%%%%%%%%%%%%%%%%%%%%%%%
 number of electrons        =         89
 total electronic charge    =     89.0000000
 number of spin components  =  1

%%%% BOUNDARY %%%%%%%%%%%%%%%%%%%%%%%%%%%%%%%%%%%%%%%%%%%%%%%%%%%%%%%%%%%%%%%%%%
 boundary mode              = electronic           
 boundary is built as a function of a smooth density
 function type              =  2 
 using the modified SCCS function with parameters 
 rhomax                     =      0.0050000 
 rhomin                     =      0.0001000 

%%%% DIELECTRIC %%%%%%%%%%%%%%%%%%%%%%%%%%%%%%%%%%%%%%%%%%%%%%%%%%%%%%%%%%%%%%%%%
 dielectric build on homogeneous background
 environment bulk permitt.  =    100.0000000 
 dielectric flags
 need gradient              =  F 
 need factor depend. sqrt   =  T 
 need gradient of logarithm =  T 

%%%% COMPUTE ELECTROSTATIC POTENTIAL %%%%%%%%%%%%%%%%%%%%%%%%%%%%%%%%%%%%%%%%%%%
 Warning: bad guess with residual norm =   0.165714E+04, reset to no guess
 Iteration #          1
  pAp =  1287.6516484168915  rzold =  1269.528435456246  alpha =  0.9859253758709297
 delta_qm =   0.214272E+00 delta_en =   0.309909E+05 tol =   0.100000E-03
 Iteration #          2
  pAp =  19073.331508611962  rzold =  559.1460162767362  alpha =  0.02931559261287266
 delta_qm =   0.507222E-01 delta_en =   0.173660E+04 tol =   0.100000E-03
 Iteration #          3
  pAp =  625.5562360663622  rzold =  21.461129328114975  alpha =  0.034307274215772135
 delta_qm =   0.273608E-01 delta_en =   0.505312E+03 tol =   0.100000E-03
 Iteration #          4
  pAp =  7.245355831436742  rzold =  0.9043972062989142  alpha =  0.1248244016359889
 delta_qm =   0.149475E-01 delta_en =   0.150813E+03 tol =   0.100000E-03
 Iteration #          5
  pAp =  0.15604323402348258  rzold =  0.04626955693557222  alpha =  0.29651754672432146
 delta_qm =   0.101983E-01 delta_en =   0.702035E+02 tol =   0.100000E-03
 Iteration #          6
  pAp =  0.047395562768511  rzold =  0.019352564929030407  alpha =  0.40832018439262
 delta_qm =   0.713233E-02 delta_en =   0.343373E+02 tol =   0.100000E-03
 Iteration #          7
  pAp =  0.021553834720133804  rzold =  0.01171078980460071  alpha =  0.5433274383263903
 delta_qm =   0.447744E-02 delta_en =   0.135321E+02 tol =   0.100000E-03
 Iteration #          8
  pAp =  0.02125220492371317  rzold =  0.010892008288222853  alpha =  0.5125119171079313
 delta_qm =   0.395118E-02 delta_en =   0.105380E+02 tol =   0.100000E-03
 Iteration #          9
  pAp =  0.009191712018550678  rzold =  0.0051610818736166734  alpha =  0.5614929909902092
 delta_qm =   0.382287E-02 delta_en =   0.986469E+01 tol =   0.100000E-03
 Iteration #         10
  pAp =  0.007056998328009721  rzold =  0.003030329220347913  alpha =  0.42940767157621734
 delta_qm =   0.354862E-02 delta_en =   0.850006E+01 tol =   0.100000E-03
 Iteration #         11
  pAp =  0.0028278772371830964  rzold =  0.001855964100373719  alpha =  0.6563099967601426
 delta_qm =   0.302348E-02 delta_en =   0.617048E+01 tol =   0.100000E-03
 Iteration #         12
  pAp =  0.003192367819549579  rzold =  0.0020837655042544364  alpha =  0.6527335263479888
 delta_qm =   0.283966E-02 delta_en =   0.544296E+01 tol =   0.100000E-03
 Iteration #         13
  pAp =  0.007245305438855815  rzold =  0.0018632088882622898  alpha =  0.2571608476669728
 delta_qm =   0.249762E-02 delta_en =   0.421073E+01 tol =   0.100000E-03
 Iteration #         14
  pAp =  0.16449467787271896  rzold =  0.00926534107050337  alpha =  0.056326084164696276
 delta_qm =   0.252603E-02 delta_en =   0.430706E+01 tol =   0.100000E-03
 Iteration #         15
  pAp =  0.0013149845558419874  rzold =  0.0007323897937897009  alpha =  0.5569569547687578
 delta_qm =   0.164875E-02 delta_en =   0.183491E+01 tol =   0.100000E-03
 Iteration #         16
  pAp =  0.000670593914107958  rzold =  0.0003359353726687333  alpha =  0.500952015223108
 delta_qm =   0.918829E-03 delta_en =   0.569866E+00 tol =   0.100000E-03
 Iteration #         17
  pAp =  0.01898999043835387  rzold =  0.001107241639135471  alpha =  0.058306592766849824
 delta_qm =   0.770819E-03 delta_en =   0.401060E+00 tol =   0.100000E-03
 Iteration #         18
  pAp =  0.000487797289246004  rzold =  0.00019964984547378353  alpha =  0.40928855054193813
 delta_qm =   0.637313E-03 delta_en =   0.274164E+00 tol =   0.100000E-03
 Iteration #         19
  pAp =  0.0000938322426824236  rzold =  0.000055088305295794835  alpha =  0.5870935588978928
 delta_qm =   0.462828E-03 delta_en =   0.144592E+00 tol =   0.100000E-03
 Iteration #         20
  pAp =  0.000052559426269900016  rzold =  0.00002666268106031568  alpha =  0.507286379485938
 delta_qm =   0.307337E-03 delta_en =   0.637577E-01 tol =   0.100000E-03
 Iteration #         21
  pAp =  0.000019971822915755306  rzold =  0.000014764822992118786  alpha =  0.7392826911393833
 delta_qm =   0.258752E-03 delta_en =   0.451931E-01 tol =   0.100000E-03
 Iteration #         22
  pAp =  0.0000143137583450038  rzold =  0.00001102458115728767  alpha =  0.7702086965255904
 delta_qm =   0.308359E-03 delta_en =   0.641826E-01 tol =   0.100000E-03
 Iteration #         23
  pAp =  0.000009286065396815181  rzold =  0.000010033100639746117  alpha =  1.080446907383093
 delta_qm =   0.275982E-03 delta_en =   0.514122E-01 tol =   0.100000E-03
 Iteration #         24
  pAp =  0.000015955419401418538  rzold =  0.000014431228029562554  alpha =  0.9044718704341628
 delta_qm =   0.328798E-03 delta_en =   0.729731E-01 tol =   0.100000E-03
 Iteration #         25
  pAp =  0.0006919678615112334  rzold =  0.0000375895785980347  alpha =  0.054322723191132585
 delta_qm =   0.321022E-03 delta_en =   0.695623E-01 tol =   0.100000E-03
 Iteration #         26
  pAp =  0.00009075546815425466  rzold =  0.000038466093358062275  alpha =  0.4238432585977352
 delta_qm =   0.370000E-03 delta_en =   0.924074E-01 tol =   0.100000E-03
 Iteration #         27
  pAp =  0.00002702180093772627  rzold =  0.000017703220384106983  alpha =  0.6551458366859174
 delta_qm =   0.281554E-03 delta_en =   0.535089E-01 tol =   0.100000E-03
 Iteration #         28
  pAp =  0.00001766108954978435  rzold =  0.000009828474062553844  alpha =  0.5565044010930715
 delta_qm =   0.177605E-03 delta_en =   0.212919E-01 tol =   0.100000E-03
 Iteration #         29
  pAp =  0.000009568395040993482  rzold =  0.00000416897994953134  alpha =  0.4357031593773407
 delta_qm =   0.107692E-03 delta_en =   0.782840E-02 tol =   0.100000E-03
 Iteration #         30
  pAp =  0.00015373146218159795  rzold =  0.000010269345309089629  alpha =  0.06680054403540889
 delta_qm =   0.100891E-03 delta_en =   0.687086E-02 tol =   0.100000E-03
 Iteration #         31
  pAp =  0.000020578604050802872  rzold =  0.000003951938923336944  alpha =  0.19204115661007432
 delta_qm =   0.873162E-04 delta_en =   0.514628E-02 tol =   0.100000E-03
 Iteration #         32
  pAp =  0.0000042859143654450026  rzold =  0.0000014231530619846068  alpha =  0.3320535457868025
 delta_qm =   0.646081E-04 delta_en =   0.281759E-02 tol =   0.100000E-03
 Iteration #         33
  pAp =  0.0000010654706711631026  rzold =  4.970064027817363E-7  alpha =  0.46646652623407076
 delta_qm =   0.395048E-04 delta_en =   0.105342E-02 tol =   0.100000E-03
 Iteration #         34
  pAp =  2.6076890511613004E-7  rzold =  1.5667861852791327E-7  alpha =  0.6008332107623741
 delta_qm =   0.193075E-04 delta_en =   0.251626E-03 tol =   0.100000E-03
 Iteration #         35
  pAp =  1.258897692449035E-7  rzold =  6.596301097639843E-8  alpha =  0.5239743576626571
 delta_qm =   0.121836E-04 delta_en =   0.100197E-03 tol =   0.100000E-03
 Iteration #         36
  pAp =  4.2772622826551645E-8  rzold =  2.0508217044007098E-8  alpha =  0.47947064474326234
 delta_qm =   0.862796E-05 delta_en =   0.502481E-04 tol =   0.100000E-03
 Charges are converged, exit!

%%%% ELECTRONS %%%%%%%%%%%%%%%%%%%%%%%%%%%%%%%%%%%%%%%%%%%%%%%%%%%%%%%%%%%%%%%%%
 number of electrons        =         89
 total electronic charge    =     89.0000000
 number of spin components  =  1

%%%% BOUNDARY %%%%%%%%%%%%%%%%%%%%%%%%%%%%%%%%%%%%%%%%%%%%%%%%%%%%%%%%%%%%%%%%%%
 boundary mode              = electronic           
 boundary is built as a function of a smooth density
 function type              =  2 
 using the modified SCCS function with parameters 
 rhomax                     =      0.0050000 
 rhomin                     =      0.0001000 

%%%% DIELECTRIC %%%%%%%%%%%%%%%%%%%%%%%%%%%%%%%%%%%%%%%%%%%%%%%%%%%%%%%%%%%%%%%%%
 dielectric build on homogeneous background
 environment bulk permitt.  =    100.0000000 
 dielectric flags
 need gradient              =  F 
 need factor depend. sqrt   =  T 
 need gradient of logarithm =  T 

%%%% COMPUTE ELECTROSTATIC POTENTIAL %%%%%%%%%%%%%%%%%%%%%%%%%%%%%%%%%%%%%%%%%%%
 Warning: bad guess with residual norm =   0.202596E+04, reset to no guess
 Iteration #          1
  pAp =  1288.9783876471552  rzold =  1269.2683619997345  alpha =  0.9847088005227159
 delta_qm =   0.208800E+00 delta_en =   0.294283E+05 tol =   0.100000E-03
 Iteration #          2
  pAp =  23054.931577164585  rzold =  642.3144549576486  alpha =  0.027860176153975114
 delta_qm =   0.488498E-01 delta_en =   0.161075E+04 tol =   0.100000E-03
 Iteration #          3
  pAp =  695.7589842499515  rzold =  22.85923027499143  alpha =  0.032855098953029474
 delta_qm =   0.260711E-01 delta_en =   0.458798E+03 tol =   0.100000E-03
 Iteration #          4
  pAp =  8.402973389707471  rzold =  0.9979912845161252  alpha =  0.11876644590336705
 delta_qm =   0.144094E-01 delta_en =   0.140150E+03 tol =   0.100000E-03
 Iteration #          5
  pAp =  0.20353140588459828  rzold =  0.054307861513310934  alpha =  0.2668279191472953
 delta_qm =   0.987105E-02 delta_en =   0.657704E+02 tol =   0.100000E-03
 Iteration #          6
  pAp =  0.05293739096837347  rzold =  0.020693932090437163  alpha =  0.3909133357705595
 delta_qm =   0.697475E-02 delta_en =   0.328368E+02 tol =   0.100000E-03
 Iteration #          7
  pAp =  0.021098251972779765  rzold =  0.011778163561442968  alpha =  0.5582530522736551
 delta_qm =   0.427460E-02 delta_en =   0.123338E+02 tol =   0.100000E-03
 Iteration #          8
  pAp =  0.02168016935571818  rzold =  0.010723859560801748  alpha =  0.4946391047435851
 delta_qm =   0.357967E-02 delta_en =   0.864947E+01 tol =   0.100000E-03
 Iteration #          9
  pAp =  0.0094466483035952  rzold =  0.005197562715588751  alpha =  0.5502017804146118
 delta_qm =   0.345776E-02 delta_en =   0.807035E+01 tol =   0.100000E-03
 Iteration #         10
  pAp =  0.00707538633840944  rzold =  0.0030026259392436985  alpha =  0.4243762524943189
 delta_qm =   0.330127E-02 delta_en =   0.735643E+01 tol =   0.100000E-03
 Iteration #         11
  pAp =  0.0026896297971044144  rzold =  0.0017567671382026076  alpha =  0.6531631751306063
 delta_qm =   0.278067E-02 delta_en =   0.521917E+01 tol =   0.100000E-03
 Iteration #         12
  pAp =  0.0028390955427547195  rzold =  0.001916951838803513  alpha =  0.6751980727438048
 delta_qm =   0.259669E-02 delta_en =   0.455139E+01 tol =   0.100000E-03
 Iteration #         13
  pAp =  0.011510079884550587  rzold =  0.0020856017505523658  alpha =  0.18119785192383991
 delta_qm =   0.230030E-02 delta_en =   0.357168E+01 tol =   0.100000E-03
 Iteration #         14
  pAp =  0.12393174175811274  rzold =  0.008841822478179178  alpha =  0.07134429285627611
 delta_qm =   0.246214E-02 delta_en =   0.409194E+01 tol =   0.100000E-03
 Iteration #         15
  pAp =  0.0017901366703286306  rzold =  0.0009139782162533996  alpha =  0.5105633728432661
 delta_qm =   0.189256E-02 delta_en =   0.241771E+01 tol =   0.100000E-03
 Iteration #         16
  pAp =  0.003857873062133655  rzold =  0.0005532857556345654  alpha =  0.1434173044896823
 delta_qm =   0.158503E-02 delta_en =   0.169582E+01 tol =   0.100000E-03
 Iteration #         17
  pAp =  0.007293982027887826  rzold =  0.0013258807488521094  alpha =  0.18177735341035037
 delta_qm =   0.951891E-03 delta_en =   0.611615E+00 tol =   0.100000E-03
 Iteration #         18
  pAp =  0.0005462800460039314  rzold =  0.00028546425255583923  alpha =  0.5225602777257305
 delta_qm =   0.790883E-03 delta_en =   0.422209E+00 tol =   0.100000E-03
 Iteration #         19
  pAp =  0.00020381747594798409  rzold =  0.00011788512177209957  alpha =  0.578385740593632
 delta_qm =   0.702802E-03 delta_en =   0.333403E+00 tol =   0.100000E-03
 Iteration #         20
  pAp =  0.00011408692448558431  rzold =  0.00006705445292087466  alpha =  0.5877487996387128
 delta_qm =   0.530370E-03 delta_en =   0.189872E+00 tol =   0.100000E-03
 Iteration #         21
  pAp =  0.00007035091090725477  rzold =  0.00006095655438298571  alpha =  0.8664643228763043
 delta_qm =   0.596231E-03 delta_en =   0.239957E+00 tol =   0.100000E-03
 Iteration #         22
  pAp =  0.00008249619205805218  rzold =  0.00006726998779052807  alpha =  0.8154314291645183
 delta_qm =   0.801849E-03 delta_en =   0.433999E+00 tol =   0.100000E-03
 Iteration #         23
  pAp =  0.00008940825690115602  rzold =  0.00007261253761270896  alpha =  0.8121457696349531
 delta_qm =   0.702916E-03 delta_en =   0.333511E+00 tol =   0.100000E-03
 Iteration #         24
  pAp =  0.00013439701411432396  rzold =  0.00007802379800958575  alpha =  0.5805471090541885
 delta_qm =   0.562738E-03 delta_en =   0.213755E+00 tol =   0.100000E-03
 Iteration #         25
  pAp =  0.012181949408200164  rzold =  0.0004384306994397367  alpha =  0.03599019210707042
 delta_qm =   0.527523E-03 delta_en =   0.187839E+00 tol =   0.100000E-03
 Iteration #         26
  pAp =  0.0001386059037026764  rzold =  0.00007541428024699908  alpha =  0.5440914003834231
 delta_qm =   0.507516E-03 delta_en =   0.173861E+00 tol =   0.100000E-03
 Iteration #         27
  pAp =  0.0000748226342574082  rzold =  0.00004267869042239607  alpha =  0.570398126796377
 delta_qm =   0.392272E-03 delta_en =   0.103867E+00 tol =   0.100000E-03
 Iteration #         28
  pAp =  0.00005165109526618645  rzold =  0.000023648988865614845  alpha =  0.4578603559854563
 delta_qm =   0.264798E-03 delta_en =   0.473298E-01 tol =   0.100000E-03
 Iteration #         29
  pAp =  0.00037803426243388785  rzold =  0.000021824290797843108  alpha =  0.05773098622683659
 delta_qm =   0.238846E-03 delta_en =   0.385071E-01 tol =   0.100000E-03
 Iteration #         30
  pAp =  0.000026837533356422796  rzold =  0.000010876577410406757  alpha =  0.4052748539128973
 delta_qm =   0.154604E-03 delta_en =   0.161341E-01 tol =   0.100000E-03
 Iteration #         31
  pAp =  0.000017572117745810427  rzold =  0.000005737232995078398  alpha =  0.32649638922697743
 delta_qm =   0.114216E-03 delta_en =   0.880561E-02 tol =   0.100000E-03
 Iteration #         32
  pAp =  0.00001713330710190264  rzold =  0.000004386916229224147  alpha =  0.25604608632369535
 delta_qm =   0.101575E-03 delta_en =   0.696423E-02 tol =   0.100000E-03
 Iteration #         33
  pAp =  0.0000032502688669092708  rzold =  0.0000015583241486523787  alpha =  0.47944468979706667
 delta_qm =   0.693104E-04 delta_en =   0.324266E-02 tol =   0.100000E-03
 Iteration #         34
  pAp =  7.334277515432035E-7  rzold =  4.23927057498573E-7  alpha =  0.5780079313969088
 delta_qm =   0.340180E-04 delta_en =   0.781127E-03 tol =   0.100000E-03
 Iteration #         35
  pAp =  3.6414942969648743E-7  rzold =  1.9402556614477962E-7  alpha =  0.5328185363533227
 delta_qm =   0.196594E-04 delta_en =   0.260883E-03 tol =   0.100000E-03
 Iteration #         36
  pAp =  4.1244483073586125E-7  rzold =  8.717038790025727E-8  alpha =  0.21135041926633605
 delta_qm =   0.177746E-04 delta_en =   0.213258E-03 tol =   0.100000E-03
 Iteration #         37
  pAp =  0.000006652308040262663  rzold =  3.9521304470771777E-7  alpha =  0.059409913418879044
 delta_qm =   0.160936E-04 delta_en =   0.174829E-03 tol =   0.100000E-03
 Iteration #         38
  pAp =  5.558281050879433E-8  rzold =  3.1770358507292394E-8  alpha =  0.5715860392173886
 delta_qm =   0.110261E-04 delta_en =   0.820633E-04 tol =   0.100000E-03
 Charges are converged, exit!

%%%% ELECTRONS %%%%%%%%%%%%%%%%%%%%%%%%%%%%%%%%%%%%%%%%%%%%%%%%%%%%%%%%%%%%%%%%%
 number of electrons        =         89
 total electronic charge    =     89.0000000
 number of spin components  =  1

%%%% BOUNDARY %%%%%%%%%%%%%%%%%%%%%%%%%%%%%%%%%%%%%%%%%%%%%%%%%%%%%%%%%%%%%%%%%%
 boundary mode              = electronic           
 boundary is built as a function of a smooth density
 function type              =  2 
 using the modified SCCS function with parameters 
 rhomax                     =      0.0050000 
 rhomin                     =      0.0001000 

%%%% DIELECTRIC %%%%%%%%%%%%%%%%%%%%%%%%%%%%%%%%%%%%%%%%%%%%%%%%%%%%%%%%%%%%%%%%%
 dielectric build on homogeneous background
 environment bulk permitt.  =    100.0000000 
 dielectric flags
 need gradient              =  F 
 need factor depend. sqrt   =  T 
 need gradient of logarithm =  T 

%%%% COMPUTE ELECTROSTATIC POTENTIAL %%%%%%%%%%%%%%%%%%%%%%%%%%%%%%%%%%%%%%%%%%%
 Warning: bad guess with residual norm =   0.108711E+04, reset to no guess
 Iteration #          1
  pAp =  1290.5070201906829  rzold =  1269.5512137489986  alpha =  0.983761571139235
 delta_qm =   0.230404E+00 delta_en =   0.358331E+05 tol =   0.100000E-03
 Iteration #          2
  pAp =  26412.573272834004  rzold =  709.8097007328663  alpha =  0.026873932100471384
 delta_qm =   0.513392E-01 delta_en =   0.177910E+04 tol =   0.100000E-03
 Iteration #          3
  pAp =  771.5161768601318  rzold =  24.28675788686746  alpha =  0.03147925943135526
 delta_qm =   0.282281E-01 delta_en =   0.537859E+03 tol =   0.100000E-03
 Iteration #          4
  pAp =  9.012794183889403  rzold =  1.033379340471285  alpha =  0.11465693317600402
 delta_qm =   0.163456E-01 delta_en =   0.180345E+03 tol =   0.100000E-03
 Iteration #          5
  pAp =  0.25186322889596624  rzold =  0.06213959489385909  alpha =  0.24671959922949394
 delta_qm =   0.109555E-01 delta_en =   0.810156E+02 tol =   0.100000E-03
 Iteration #          6
  pAp =  0.056976130672236426  rzold =  0.021906096979195936  alpha =  0.3844784951300744
 delta_qm =   0.764999E-02 delta_en =   0.395026E+02 tol =   0.100000E-03
 Iteration #          7
  pAp =  0.021109332080771925  rzold =  0.012022839854499298  alpha =  0.5695509364529191
 delta_qm =   0.456298E-02 delta_en =   0.140540E+02 tol =   0.100000E-03
 Iteration #          8
  pAp =  0.023441019807265602  rzold =  0.011211249521441171  alpha =  0.478274819680252
 delta_qm =   0.375050E-02 delta_en =   0.949472E+01 tol =   0.100000E-03
 Iteration #          9
  pAp =  0.009580100602760766  rzold =  0.005450380538761905  alpha =  0.5689272758984629
 delta_qm =   0.368825E-02 delta_en =   0.918217E+01 tol =   0.100000E-03
 Iteration #         10
  pAp =  0.007743695930205824  rzold =  0.0030865190550901935  alpha =  0.398584743371781
 delta_qm =   0.350971E-02 delta_en =   0.831467E+01 tol =   0.100000E-03
 Iteration #         11
  pAp =  0.002793023244225789  rzold =  0.00180784018958811  alpha =  0.6472700122799134
 delta_qm =   0.295951E-02 delta_en =   0.591211E+01 tol =   0.100000E-03
 Iteration #         12
  pAp =  0.0024290480185354146  rzold =  0.001850917407282144  alpha =  0.7619929261003855
 delta_qm =   0.279278E-02 delta_en =   0.526473E+01 tol =   0.100000E-03
 Iteration #         13
  pAp =  0.005772676673263322  rzold =  0.0020475922592888885  alpha =  0.354704130368586
 delta_qm =   0.262642E-02 delta_en =   0.465621E+01 tol =   0.100000E-03
 Iteration #         14
  pAp =  0.2461277764650317  rzold =  0.009032086099090049  alpha =  0.03669673625956342
 delta_qm =   0.291271E-02 delta_en =   0.572661E+01 tol =   0.100000E-03
 Iteration #         15
  pAp =  0.002604689903322829  rzold =  0.0011694452793995687  alpha =  0.44897677758404003
 delta_qm =   0.240465E-02 delta_en =   0.390309E+01 tol =   0.100000E-03
 Iteration #         16
  pAp =  0.001128669830395209  rzold =  0.000609989683921434  alpha =  0.5404500656386317
 delta_qm =   0.143568E-02 delta_en =   0.139130E+01 tol =   0.100000E-03
 Iteration #         17
  pAp =  0.03593266288232043  rzold =  0.0019190024186489273  alpha =  0.053405516449856937
 delta_qm =   0.140145E-02 delta_en =   0.132575E+01 tol =   0.100000E-03
 Iteration #         18
  pAp =  0.0011079392305075571  rzold =  0.0005534070068823876  alpha =  0.49949220286104207
 delta_qm =   0.122577E-02 delta_en =   0.101419E+01 tol =   0.100000E-03
 Iteration #         19
  pAp =  0.0004102507712739897  rzold =  0.00024564509628965703  alpha =  0.5987681522860581
 delta_qm =   0.117871E-02 delta_en =   0.937809E+00 tol =   0.100000E-03
 Iteration #         20
  pAp =  0.00023585851394798582  rzold =  0.00014471147671388002  alpha =  0.6135520583572973
 delta_qm =   0.859923E-03 delta_en =   0.499141E+00 tol =   0.100000E-03
 Iteration #         21
  pAp =  0.00022741705760986387  rzold =  0.00016104554652154394  alpha =  0.7081506911316173
 delta_qm =   0.984491E-03 delta_en =   0.654226E+00 tol =   0.100000E-03
 Iteration #         22
  pAp =  0.00019124679671111123  rzold =  0.00015854482475784155  alpha =  0.8290064329669908
 delta_qm =   0.131437E-02 delta_en =   0.116612E+01 tol =   0.100000E-03
 Iteration #         23
  pAp =  0.00019816224294777124  rzold =  0.0001511039913166273  alpha =  0.7625266502279807
 delta_qm =   0.109717E-02 delta_en =   0.812557E+00 tol =   0.100000E-03
 Iteration #         24
  pAp =  0.000236222589235642  rzold =  0.0001463477855484364  alpha =  0.6195334071224167
 delta_qm =   0.738857E-03 delta_en =   0.368489E+00 tol =   0.100000E-03
 Iteration #         25
  pAp =  0.001508080330581511  rzold =  0.00014775391488459338  alpha =  0.09797483057657808
 delta_qm =   0.693146E-03 delta_en =   0.324305E+00 tol =   0.100000E-03
 Iteration #         26
  pAp =  0.0028757505772608934  rzold =  0.0003874297745228194  alpha =  0.13472301025906083
 delta_qm =   0.657283E-03 delta_en =   0.291614E+00 tol =   0.100000E-03
 Iteration #         27
  pAp =  0.00011103811444856925  rzold =  0.00006775271015362719  alpha =  0.6101752581993722
 delta_qm =   0.541099E-03 delta_en =   0.197632E+00 tol =   0.100000E-03
 Iteration #         28
  pAp =  0.0000767219356278097  rzold =  0.00003792024295618393  alpha =  0.4942555560660129
 delta_qm =   0.388665E-03 delta_en =   0.101966E+00 tol =   0.100000E-03
 Iteration #         29
  pAp =  0.000026254185183366627  rzold =  0.00001304921833355291  alpha =  0.4970338345072792
 delta_qm =   0.229265E-03 delta_en =   0.354797E-01 tol =   0.100000E-03
 Iteration #         30
  pAp =  0.0009424966451349338  rzold =  0.00004981134612630888  alpha =  0.05285042273988952
 delta_qm =   0.193695E-03 delta_en =   0.253245E-01 tol =   0.100000E-03
 Iteration #         31
  pAp =  0.000018637506563300985  rzold =  0.000007869389866586279  alpha =  0.42223404938093234
 delta_qm =   0.168581E-03 delta_en =   0.191831E-01 tol =   0.100000E-03
 Iteration #         32
  pAp =  0.000021199056369517542  rzold =  0.00000587602053736764  alpha =  0.2771831177267335
 delta_qm =   0.144605E-03 delta_en =   0.141147E-01 tol =   0.100000E-03
 Iteration #         33
  pAp =  0.000014922043798433325  rzold =  0.000004125022951368389  alpha =  0.27643820156870724
 delta_qm =   0.120739E-03 delta_en =   0.984011E-02 tol =   0.100000E-03
 Iteration #         34
  pAp =  0.000002125132924540655  rzold =  0.0000011245928224963067  alpha =  0.5291870496709687
 delta_qm =   0.659844E-04 delta_en =   0.293891E-02 tol =   0.100000E-03
 Iteration #         35
  pAp =  8.511313595778735E-7  rzold =  5.043000522751168E-7  alpha =  0.5925055475869542
 delta_qm =   0.334017E-04 delta_en =   0.753080E-03 tol =   0.100000E-03
 Iteration #         36
  pAp =  3.285515075308841E-7  rzold =  1.9268660200560407E-7  alpha =  0.5864730417877975
 delta_qm =   0.288411E-04 delta_en =   0.561471E-03 tol =   0.100000E-03
 Iteration #         37
  pAp =  0.0000032439049094760383  rzold =  1.555563351775789E-7  alpha =  0.04795342018909693
 delta_qm =   0.283200E-04 delta_en =   0.541364E-03 tol =   0.100000E-03
 Iteration #         38
  pAp =  4.844140620587118E-7  rzold =  1.4867385217862532E-7  alpha =  0.30691481487299554
 delta_qm =   0.199481E-04 delta_en =   0.268600E-03 tol =   0.100000E-03
 Iteration #         39
  pAp =  6.069441679486461E-8  rzold =  3.698209456085184E-8  alpha =  0.6093162520342549
 delta_qm =   0.106463E-04 delta_en =   0.765075E-04 tol =   0.100000E-03
 Charges are converged, exit!

%%%% ELECTRONS %%%%%%%%%%%%%%%%%%%%%%%%%%%%%%%%%%%%%%%%%%%%%%%%%%%%%%%%%%%%%%%%%
 number of electrons        =         89
 total electronic charge    =     89.0000000
 number of spin components  =  1

%%%% BOUNDARY %%%%%%%%%%%%%%%%%%%%%%%%%%%%%%%%%%%%%%%%%%%%%%%%%%%%%%%%%%%%%%%%%%
 boundary mode              = electronic           
 boundary is built as a function of a smooth density
 function type              =  2 
 using the modified SCCS function with parameters 
 rhomax                     =      0.0050000 
 rhomin                     =      0.0001000 

%%%% DIELECTRIC %%%%%%%%%%%%%%%%%%%%%%%%%%%%%%%%%%%%%%%%%%%%%%%%%%%%%%%%%%%%%%%%%
 dielectric build on homogeneous background
 environment bulk permitt.  =    100.0000000 
 dielectric flags
 need gradient              =  F 
 need factor depend. sqrt   =  T 
 need gradient of logarithm =  T 
