
     Program PWSCF v.6.1 (svn rev. 13369) starts on 19Oct2017 at 16:24:57 

     This program is part of the open-source Quantum ESPRESSO suite
     for quantum simulation of materials; please cite
         "P. Giannozzi et al., J. Phys.:Condens. Matter 21 395502 (2009);
          URL http://www.quantum-espresso.org", 
     in publications or presentations arising from this work. More details at
     http://www.quantum-espresso.org/quote

     Parallel version (MPI), running on     1 processors
     Reading input from neutral.in

     Current dimensions of program PWSCF are:
     Max number of different atomic species (ntypx) = 10
     Max number of k-points (npk) =  40000
     Max angular momentum in pseudopotentials (lmaxx) =  3
               file C.pbe-rrkjus.UPF: wavefunction(s)  2S 2P renormalized
               file O.pbe-rrkjus.UPF: wavefunction(s)  2S renormalized

     gamma-point specific algorithms are used

     Subspace diagonalization in iterative solution of the eigenvalue problem:
     a serial algorithm will be used

 
     G-vector sticks info
     --------------------
     sticks:   dense  smooth     PW     G-vecs:    dense   smooth      PW
     Sum        2205    1099    269               330909   116965   14571
 


     bravais-lattice index     =            8
     lattice parameter (alat)  =      10.6881  a.u.
     unit-cell volume          =    4181.1215 (a.u.)^3
     number of atoms/cell      =           10
     number of atomic types    =            3
     number of electrons       =        90.00
     number of Kohn-Sham states=           80
     kinetic-energy cutoff     =      35.0000  Ry
     charge density cutoff     =     280.0000  Ry
     convergence threshold     =      5.0E-02
     mixing beta               =       0.7000
     number of iterations used =            8  plain     mixing
     Exchange-correlation      = PBE ( 1  4  3  4 0 0)
 

     Environ Module
     ==============

     Plese cite
         O. Andreussi, I. Dabo and N. Marzari, J. Chem. Phys. 136, 064102 (2012)         
     in publications or presentations arising from this work.

     compensation onset threshold      =               0.1000E+03 
     static permittivity               =                   100.00 
     epsilon calculation mode          =               electronic 

     Electrostatic Setup
     -------------------
     electrostatic problem to solve    = generalized              
     numerical solver adopted          = cg                       
     type of auxiliary density adopted = none                     
     type of core tool for poisson     = fft                      
     type of core tool for s(r) deriv  = analytic                 



     celldm(1)=  10.688100  celldm(2)=   0.866025  celldm(3)=   3.954220
     celldm(4)=   0.000000  celldm(5)=   0.000000  celldm(6)=   0.000000

     crystal axes: (cart. coord. in units of alat)
               a(1) = (   1.000000   0.000000   0.000000 )  
               a(2) = (   0.000000   0.866025   0.000000 )  
               a(3) = (   0.000000   0.000000   3.954220 )  

     reciprocal axes: (cart. coord. in units 2 pi/alat)
               b(1) = (  1.000000  0.000000  0.000000 )  
               b(2) = (  0.000000  1.154701  0.000000 )  
               b(3) = (  0.000000  0.000000  0.252894 )  


     PseudoPot. # 1 for C  read from file:
     /home/andreo/PWSCF/espresso-6.1-Environ-1.0/Environ/tests/../..//pseudo/C.pbe-rrkjus.UPF
     MD5 check sum: 00fb224312de0c5b6853bd333518df6f
     Pseudo is Ultrasoft, Zval =  4.0
     Generated by new atomic code, or converted to UPF format
     Using radial grid of  627 points,  4 beta functions with: 
                l(1) =   0
                l(2) =   0
                l(3) =   1
                l(4) =   1
     Q(r) pseudized with 0 coefficients 


     PseudoPot. # 2 for O  read from file:
     /home/andreo/PWSCF/espresso-6.1-Environ-1.0/Environ/tests/../..//pseudo/O.pbe-rrkjus.UPF
     MD5 check sum: 390ba29e75625707450f3bd3f0eb6be9
     Pseudo is Ultrasoft, Zval =  6.0
     Generated by new atomic code, or converted to UPF format
     Using radial grid of 1269 points,  4 beta functions with: 
                l(1) =   0
                l(2) =   0
                l(3) =   1
                l(4) =   1
     Q(r) pseudized with 0 coefficients 


     PseudoPot. # 3 for Pt read from file:
     /home/andreo/PWSCF/espresso-6.1-Environ-1.0/Environ/tests/../..//pseudo/Pt.pbe-n-rrkjus_psl.0.1.UPF
     MD5 check sum: df5be8f5ed4f66d4aed38ca70ec8d507
     Pseudo is Ultrasoft + core correction, Zval = 10.0
     Generated using "atomic" code by A. Dal Corso  v.5.0.2 svn rev. 9415
     Using radial grid of 1277 points,  6 beta functions with: 
                l(1) =   0
                l(2) =   0
                l(3) =   1
                l(4) =   1
                l(5) =   2
                l(6) =   2
     Q(r) pseudized with 0 coefficients 


     atomic species   valence    mass     pseudopotential
        C              4.00     1.00000     C ( 1.00)
        O              6.00     1.00000     O ( 1.00)
        Pt            10.00     1.00000     Pt( 1.00)

     No symmetry found



   Cartesian axes

     site n.     atom                  positions (alat units)
         1           C   tau(   1) = (   0.4991611   0.4347567   1.2070461  )
         2           O   tau(   2) = (   0.4991542   0.4322212   1.4109013  )
         3           Pt  tau(   3) = (   0.7542339   0.0091745   0.8413229  )
         4           Pt  tau(   4) = (   0.2441023   0.0091745   0.8413226  )
         5           Pt  tau(   5) = (   0.0000034   0.4416918   0.8391348  )
         6           Pt  tau(   6) = (   0.4991682   0.4417635   0.8776299  )
         7           Pt  tau(   7) = (   0.0000038   0.7300598   0.4308181  )
         8           Pt  tau(   8) = (   0.4991683   0.7202168   0.4447460  )
         9           Pt  tau(   9) = (   0.2524172   0.2949237   0.4386572  )
        10           Pt  tau(  10) = (   0.7459196   0.2949237   0.4386575  )

     number of k points=     1  Marzari-Vanderbilt smearing, width (Ry)=  0.0300
                       cart. coord. in units 2pi/alat
        k(    1) = (   0.0000000   0.0000000   0.0000000), wk =   2.0000000

     Dense  grid:   165455 G-vectors     FFT dimensions: (  60,  50, 225)

     Smooth grid:    58483 G-vectors     FFT dimensions: (  45,  36, 160)

     Estimated max dynamical RAM per process >     216.67MB

     Initial potential from superposition of free atoms
     Check: negative starting charge=   -0.001782

     starting charge   89.99859, renormalised to   90.00000

     negative rho (up, down):  1.782E-03 0.000E+00
     Starting wfc are   80 randomized atomic wfcs

     total cpu time spent up to now is        5.6 secs

     per-process dynamical memory:   283.0 Mb

     Self-consistent Calculation

     iteration #  1     ecut=    35.00 Ry     beta=0.70
     Davidson diagonalization with overlap
     ethr =  1.00E-02,  avg # of iterations =  8.0

     negative rho (up, down):  1.109E-03 0.000E+00

     add environment contribution to local potential
     polarization accuracy = 2.9E-05, # of iterations =  21

     total cpu time spent up to now is       10.8 secs

     total energy              =    -623.07845200 Ry
     Harris-Foulkes estimate   =    -624.45738907 Ry
     estimated scf accuracy    <       1.79975746 Ry
     electrostatic embedding   =       0.00000000 Ry
     correction to one-el term =       0.00000000 Ry

     iteration #  2     ecut=    35.00 Ry     beta=0.70
     Davidson diagonalization with overlap
     ethr =  2.00E-03,  avg # of iterations =  6.0

     negative rho (up, down):  1.454E-02 0.000E+00

     add environment contribution to local potential
     polarization accuracy = 6.0E-05, # of iterations =  28

     total cpu time spent up to now is       16.4 secs

     total energy              =    -621.48575492 Ry
     Harris-Foulkes estimate   =    -657.06063977 Ry
     estimated scf accuracy    <      16.72862141 Ry
     electrostatic embedding   =       0.00076538 Ry
     correction to one-el term =      30.87327763 Ry

     iteration #  3     ecut=    35.00 Ry     beta=0.70
     Davidson diagonalization with overlap
     ethr =  2.00E-03,  avg # of iterations =  6.0

     negative rho (up, down):  9.454E-03 0.000E+00

     add environment contribution to local potential
     polarization accuracy = 5.1E-05, # of iterations =  24

     total cpu time spent up to now is       21.7 secs

     total energy              =    -623.56568650 Ry
     Harris-Foulkes estimate   =    -653.04816522 Ry
     estimated scf accuracy    <       6.11048020 Ry
     electrostatic embedding   =      -0.01614082 Ry
     correction to one-el term =      28.55300086 Ry

     iteration #  4     ecut=    35.00 Ry     beta=0.70
     Davidson diagonalization with overlap
     ethr =  2.00E-03,  avg # of iterations =  1.0

     negative rho (up, down):  6.996E-03 0.000E+00

     add environment contribution to local potential
     polarization accuracy = 3.1E-05, # of iterations =  30

     total cpu time spent up to now is       26.7 secs

     total energy              =    -623.77013391 Ry
     Harris-Foulkes estimate   =    -652.23805434 Ry
     estimated scf accuracy    <       3.36237069 Ry
     electrostatic embedding   =      -0.01719265 Ry
     correction to one-el term =      27.92267872 Ry

     iteration #  5     ecut=    35.00 Ry     beta=0.70
     Davidson diagonalization with overlap
     ethr =  2.00E-03,  avg # of iterations =  8.0

     negative rho (up, down):  1.132E-02 0.000E+00

     add environment contribution to local potential
     polarization accuracy = 1.9E-05, # of iterations =  35

     total cpu time spent up to now is       32.6 secs

     total energy              =    -624.19485958 Ry
     Harris-Foulkes estimate   =    -651.52225324 Ry
     estimated scf accuracy    <       6.72068832 Ry
     electrostatic embedding   =      -0.03644058 Ry
     correction to one-el term =      27.02990287 Ry

     iteration #  6     ecut=    35.00 Ry     beta=0.70
     Davidson diagonalization with overlap
     ethr =  2.00E-03,  avg # of iterations =  8.0

     negative rho (up, down):  9.398E-03 0.000E+00

     add environment contribution to local potential
     polarization accuracy = 6.3E-05, # of iterations =  24

     total cpu time spent up to now is       37.8 secs

     total energy              =    -624.28622768 Ry
     Harris-Foulkes estimate   =    -652.79792877 Ry
     estimated scf accuracy    <      10.69461595 Ry
     electrostatic embedding   =      -0.00142145 Ry
     correction to one-el term =      28.13307066 Ry

     iteration #  7     ecut=    35.00 Ry     beta=0.70
     Davidson diagonalization with overlap
     ethr =  2.00E-03,  avg # of iterations =  6.0

     negative rho (up, down):  4.833E-03 0.000E+00

     add environment contribution to local potential
     polarization accuracy = 4.8E-05, # of iterations =  24

     total cpu time spent up to now is       42.8 secs

     total energy              =    -624.12310017 Ry
     Harris-Foulkes estimate   =    -651.20903338 Ry
     estimated scf accuracy    <       0.41190746 Ry
     electrostatic embedding   =      -0.01977775 Ry
     correction to one-el term =      27.06633309 Ry

     iteration #  8     ecut=    35.00 Ry     beta=0.70
     Davidson diagonalization with overlap
     ethr =  4.58E-04,  avg # of iterations =  3.0

     negative rho (up, down):  5.788E-03 0.000E+00

     add environment contribution to local potential
     polarization accuracy = 9.3E-05, # of iterations =  24

     total cpu time spent up to now is       47.5 secs

     total energy              =    -624.15085373 Ry
     Harris-Foulkes estimate   =    -651.58155477 Ry
     estimated scf accuracy    <       0.96528035 Ry
     electrostatic embedding   =      -0.01173468 Ry
     correction to one-el term =      27.41675361 Ry

     iteration #  9     ecut=    35.00 Ry     beta=0.70
     Davidson diagonalization with overlap
     ethr =  4.58E-04,  avg # of iterations =  1.0

     negative rho (up, down):  5.904E-03 0.000E+00

     add environment contribution to local potential
     polarization accuracy = 3.8E-05, # of iterations =  25

     total cpu time spent up to now is       52.2 secs

     total energy              =    -624.14492465 Ry
     Harris-Foulkes estimate   =    -651.47420034 Ry
     estimated scf accuracy    <       0.95007422 Ry
     electrostatic embedding   =      -0.01022182 Ry
     correction to one-el term =      27.31566007 Ry

     iteration # 10     ecut=    35.00 Ry     beta=0.70
     Davidson diagonalization with overlap
     ethr =  4.58E-04,  avg # of iterations =  1.0

     negative rho (up, down):  5.933E-03 0.000E+00

     add environment contribution to local potential
     polarization accuracy = 7.4E-05, # of iterations =  23

     total cpu time spent up to now is       56.7 secs

     total energy              =    -624.13542006 Ry
     Harris-Foulkes estimate   =    -651.49595344 Ry
     estimated scf accuracy    <       1.01756928 Ry
     electrostatic embedding   =      -0.00766248 Ry
     correction to one-el term =      27.33114880 Ry

     iteration # 11     ecut=    35.00 Ry     beta=0.70
     Davidson diagonalization with overlap
     ethr =  4.58E-04,  avg # of iterations =  1.0

     negative rho (up, down):  2.759E-03 0.000E+00

     add environment contribution to local potential
     polarization accuracy = 3.2E-05, # of iterations =  22

     total cpu time spent up to now is       61.3 secs

     total energy              =    -624.13499593 Ry
     Harris-Foulkes estimate   =    -651.19779032 Ry
     estimated scf accuracy    <       0.06585942 Ry
     electrostatic embedding   =      -0.00755640 Ry
     correction to one-el term =      27.06095653 Ry

     iteration # 12     ecut=    35.00 Ry     beta=0.70
     Davidson diagonalization with overlap
     ethr =  7.32E-05,  avg # of iterations =  4.0

     negative rho (up, down):  1.777E-03 0.000E+00

     total cpu time spent up to now is       64.1 secs

     End of self-consistent calculation

          k = 0.0000 0.0000 0.0000 (  7286 PWs)   bands (ev):

   -29.0184 -15.1688 -13.2751 -12.5276 -11.8224 -11.7852 -11.7199 -10.9991
   -10.8599 -10.0399  -9.8802  -9.7922  -9.5108  -9.4663  -9.4219  -9.2805
    -8.6353  -8.5866  -8.5311  -8.3362  -8.2512  -8.2133  -8.1630  -8.1233
    -8.1119  -7.9273  -7.9037  -7.8357  -7.7447  -7.4825  -7.3745  -6.6388
    -6.4893  -6.3881  -6.0589  -5.9686  -5.9388  -5.7519  -5.6667  -5.4691
    -5.2777  -5.2212  -5.0604  -5.0236  -5.0055  -4.9449  -4.7829  -3.7336
    -3.3275  -3.2455  -2.8324  -2.2427  -2.1255  -1.1966  -0.8076  -0.6985
    -0.3778   0.0516   0.6533   0.6944   0.9787   1.3426   2.2876   2.4844
     2.5038   2.8390   3.0806   3.3501   3.6284   3.6833   4.1272   4.2035
     4.5192   4.6922   4.9977   5.1595   5.3731   5.4385   5.5020   5.6565

     the Fermi energy is    -4.8739 ev

!    total energy              =    -624.13349487 Ry
     Harris-Foulkes estimate   =    -651.24867173 Ry
     estimated scf accuracy    <       0.00827125 Ry

     The total energy is the sum of the following terms:

     one-electron contribution =   -3991.99362925 Ry
     hartree contribution      =    2030.70802670 Ry
     xc contribution           =    -263.15410447 Ry
     ewald contribution        =    1573.20467954 Ry
     smearing contrib. (-TS)   =      -0.00663047 Ry
     electrostatic embedding   =      -0.00709089 Ry
     correction to one-el term =      27.11525397 Ry

     convergence has been achieved in  12 iterations

     negative rho (up, down):  1.777E-03 0.000E+00

     Forces acting on atoms (cartesian axes, Ry/au):

     atom    1 type  1   force =     0.00007795   -0.00718523    0.02587127
     atom    2 type  2   force =    -0.00002566    0.00164638   -0.01605313
     atom    3 type  3   force =    -0.00140079    0.00853257    0.03353815
     atom    4 type  3   force =     0.00250139    0.00874087    0.03372295
     atom    5 type  3   force =    -0.00155382    0.01569113   -0.00860744
     atom    6 type  3   force =     0.00034237    0.00975763    0.05935653
     atom    7 type  3   force =    -0.00130437   -0.00755175   -0.03552897
     atom    8 type  3   force =     0.00017161   -0.00756247   -0.02625463
     atom    9 type  3   force =     0.00993173   -0.01127608   -0.03308907
     atom   10 type  3   force =    -0.00874042   -0.01079305   -0.03295567

     Total force =     0.109587     Total SCF correction =     0.161702
     SCF correction compared to forces is large: reduce conv_thr to get better values

     Writing output data file pwscf.save
 
     init_run     :      5.16s CPU      5.24s WALL (       1 calls)
     electrons    :     57.57s CPU     59.15s WALL (       1 calls)
     forces       :      3.48s CPU      3.52s WALL (       1 calls)

     Called by init_run:
     wfcinit      :      0.40s CPU      0.40s WALL (       1 calls)
     potinit      :      1.83s CPU      1.84s WALL (       1 calls)

     Called by electrons:
     c_bands      :     14.51s CPU     14.59s WALL (      12 calls)
     sum_band     :      8.98s CPU      9.45s WALL (      12 calls)
     v_of_rho     :      3.72s CPU      3.76s WALL (      13 calls)
     newd         :      5.14s CPU      5.51s WALL (      13 calls)
     mix_rho      :      0.47s CPU      0.47s WALL (      12 calls)

     Called by c_bands:
     init_us_2    :      0.12s CPU      0.11s WALL (      25 calls)
     regterg      :     13.66s CPU     13.74s WALL (      12 calls)

     Called by sum_band:
     sum_band:bec :      0.00s CPU      0.00s WALL (      12 calls)
     addusdens    :      6.15s CPU      6.59s WALL (      12 calls)

     Called by *egterg:
     h_psi        :     10.69s CPU     10.70s WALL (      66 calls)
     s_psi        :      0.55s CPU      0.55s WALL (      66 calls)
     g_psi        :      0.09s CPU      0.10s WALL (      53 calls)
     rdiaghg      :      0.52s CPU      0.53s WALL (      65 calls)

     Called by h_psi:
     h_psi:pot    :     10.62s CPU     10.64s WALL (      66 calls)
     h_psi:calbec :      0.56s CPU      0.58s WALL (      66 calls)
     vloc_psi     :      9.52s CPU      9.51s WALL (      66 calls)
     add_vuspsi   :      0.53s CPU      0.55s WALL (      66 calls)

     General routines
     calbec       :      0.87s CPU      0.88s WALL (      82 calls)
     fft          :     10.86s CPU     10.94s WALL (     938 calls)
     ffts         :      0.11s CPU      0.11s WALL (      25 calls)
     fftw         :      9.78s CPU      9.80s WALL (    2996 calls)
     interpolate  :      0.44s CPU      0.49s WALL (      25 calls)
     davcio       :      0.00s CPU      0.00s WALL (       1 calls)
 
     Parallel routines
     fft_scatter  :      2.72s CPU      2.70s WALL (    3959 calls)
 
     Environ routines
     calc_eelect  :      0.01s CPU      0.01s WALL (      24 calls)
     calc_velect  :     21.48s CPU     21.50s WALL (      22 calls)
     dielectric   :      0.25s CPU      0.26s WALL (      13 calls)
     calc_felect  :      0.16s CPU      0.16s WALL (       1 calls)
 
     PWSCF        :  1m 6.61s CPU     1m10.64s WALL

 
   This run was terminated on:  16:26: 8  19Oct2017            

=------------------------------------------------------------------------------=
   JOB DONE.
=------------------------------------------------------------------------------=

%%%% IONS %%%%%%%%%%%%%%%%%%%%%%%%%%%%%%%%%%%%%%%%%%%%%%%%%%%%%%%%%%%%%%%%%%%%%%
 number of ions             =         10
 ionic center of charge     =      0.3882415     0.3750182     0.7201831
 total ionic charge         =    -90.0000000
 ionic dipole               =      0.0000000     0.0000000     0.0000000
 ionic quadrupole (pc)      =   -730.5101255  -614.6110457  -876.7220256
 ionic quadrupole (gauss)   =   -741.7601255  -625.8610457  -887.9720256
 ion   1 type =  1 coordinates =      5.3350841     4.6467234    12.9010299
 ion   2 type =  2 coordinates =      5.3350096     4.6196233    15.0798543
 ion   3 type =  3 coordinates =      8.0613271     0.0980580     8.9921429
 ion   4 type =  3 coordinates =      2.6089894     0.0980583     8.9921406
 ion   5 type =  3 coordinates =      0.0000366     4.7208463     8.9687569
 ion   6 type =  3 coordinates =      5.3351596     4.7216127     9.3801964
 ion   7 type =  3 coordinates =      0.0000411     7.8029520     4.6046265
 ion   8 type =  3 coordinates =      5.3351612     7.6977491     4.7534894
 ion   9 type =  3 coordinates =      2.6978606     3.1521739     4.6884123
 ion  10 type =  3 coordinates =      7.9724637     3.1521745     4.6884152

%%%% SYSTEM %%%%%%%%%%%%%%%%%%%%%%%%%%%%%%%%%%%%%%%%%%%%%%%%%%%%%%%%%%%%%%%%%%%%
 system is built from all present ionic types
 system defined dimension   =  0 
 system defined axis        =  3 
 system center              =      0.3882415     0.3750182     0.7201831 
 system width               =      1.5145225 

%%%% ELECTRONS %%%%%%%%%%%%%%%%%%%%%%%%%%%%%%%%%%%%%%%%%%%%%%%%%%%%%%%%%%%%%%%%%
 number of electrons        =         90
 total electronic charge    =     90.0000000
 number of spin components  =  1

%%%% BOUNDARY %%%%%%%%%%%%%%%%%%%%%%%%%%%%%%%%%%%%%%%%%%%%%%%%%%%%%%%%%%%%%%%%%%
 boundary mode              = electronic           
 boundary is built as a function of a smooth density
 function type              =  2 
 using the modified SCCS function with parameters 
 rhomax                     =      0.0050000 
 rhomin                     =      0.0001000 

%%%% DIELECTRIC %%%%%%%%%%%%%%%%%%%%%%%%%%%%%%%%%%%%%%%%%%%%%%%%%%%%%%%%%%%%%%%%%
 dielectric build on homogeneous background
 environment bulk permitt.  =    100.0000000 
 dielectric flags
 need gradient              =  F 
 need factor depend. sqrt   =  T 
 need gradient of logarithm =  T 

%%%% COMPUTE ELECTROSTATIC POTENTIAL %%%%%%%%%%%%%%%%%%%%%%%%%%%%%%%%%%%%%%%%%%%
 Iteration #          1
  pAp =    1284.14669239001       rzold =    1283.81814840364       alpha = 
  0.999744153850712     
 delta_qm =   0.177584E-01 delta_en =   0.212868E+03 tol =   0.100000E-03
 Iteration #          2
  pAp =    29.9384187976419       rzold =    2.20415532253260       alpha = 
  7.362297045247441E-002
 delta_qm =   0.157051E-01 delta_en =   0.166488E+03 tol =   0.100000E-03
 Iteration #          3
  pAp =    17.6746614100557       rzold =    1.38064588409780       alpha = 
  7.811441770037533E-002
 delta_qm =   0.831164E-02 delta_en =   0.466312E+02 tol =   0.100000E-03
 Iteration #          4
  pAp =   5.028916374976213E-002  rzold =   3.272439096184625E-002  alpha = 
  0.650724500504366     
 delta_qm =   0.930200E-02 delta_en =   0.584059E+02 tol =   0.100000E-03
 Iteration #          5
  pAp =   0.293569478347536       rzold =   1.166429009555853E-002  alpha = 
  3.973263896919833E-002
 delta_qm =   0.827281E-02 delta_en =   0.461966E+02 tol =   0.100000E-03
 Iteration #          6
  pAp =  -6.058388598627980E-003  rzold =  -1.226261820941803E-002  alpha = 
   2.02407257470990     
 delta_qm =   0.178532E-02 delta_en =   0.215148E+01 tol =   0.100000E-03
 Iteration #          7
  pAp =   1.406723991391362E-002  rzold =   6.089848673100509E-003  alpha = 
  0.432909988765967     
 delta_qm =   0.475655E-03 delta_en =   0.152717E+00 tol =   0.100000E-03
 Iteration #          8
  pAp =   1.201306824614030E-003  rzold =   4.937970410873445E-004  alpha = 
  0.411049892475220     
 delta_qm =   0.253898E-03 delta_en =   0.435134E-01 tol =   0.100000E-03
 Iteration #          9
  pAp =   2.531673820726141E-004  rzold =   9.058734148438027E-005  alpha = 
  0.357816005927643     
 delta_qm =   0.209305E-03 delta_en =   0.295707E-01 tol =   0.100000E-03
 Iteration #         10
  pAp =   3.478251191094578E-005  rzold =   1.909411298671561E-005  alpha = 
  0.548957275874801     
 delta_qm =   0.186700E-03 delta_en =   0.235283E-01 tol =   0.100000E-03
 Iteration #         11
  pAp =   1.629148163795805E-005  rzold =   1.432351394082613E-005  alpha = 
  0.879202656893607     
 delta_qm =   0.174501E-03 delta_en =   0.205540E-01 tol =   0.100000E-03
 Iteration #         12
  pAp =   1.210161087908785E-005  rzold =   2.039668056587121E-005  alpha = 
   1.68545169479194     
 delta_qm =   0.300903E-03 delta_en =   0.611162E-01 tol =   0.100000E-03
 Iteration #         13
  pAp =   3.960816623089976E-005  rzold =   3.306223272193329E-005  alpha = 
  0.834732729841460     
 delta_qm =   0.365875E-03 delta_en =   0.903587E-01 tol =   0.100000E-03
 Iteration #         14
  pAp =   1.522367868519413E-004  rzold =   5.766997855706535E-005  alpha = 
  0.378817628443200     
 delta_qm =   0.430614E-03 delta_en =   0.125164E+00 tol =   0.100000E-03
 Iteration #         15
  pAp =   3.594938872739245E-003  rzold =   2.751639247441511E-004  alpha = 
  7.654203158522241E-002
 delta_qm =   0.381791E-03 delta_en =   0.983908E-01 tol =   0.100000E-03
 Iteration #         16
  pAp =   6.262434822570894E-005  rzold =   7.615808446389963E-005  alpha = 
   1.21610981386046     
 delta_qm =   0.333039E-03 delta_en =   0.748675E-01 tol =   0.100000E-03
 Iteration #         17
  pAp =   9.767675636805950E-005  rzold =   1.098075645874208E-004  alpha = 
   1.12419339738976     
 delta_qm =   0.210034E-03 delta_en =   0.297771E-01 tol =   0.100000E-03
 Iteration #         18
  pAp =   6.474629175834561E-005  rzold =   4.083710031342259E-005  alpha = 
  0.630724929635199     
 delta_qm =   0.946752E-04 delta_en =   0.605029E-02 tol =   0.100000E-03
 Iteration #         19
  pAp =   5.635921534679591E-006  rzold =   3.542952602322571E-006  alpha = 
  0.628637673630066     
 delta_qm =   0.429404E-04 delta_en =   0.124462E-02 tol =   0.100000E-03
 Iteration #         20
  pAp =   7.907759721124638E-007  rzold =   4.678587959390113E-007  alpha = 
  0.591645184525754     
 delta_qm =   0.211468E-04 delta_en =   0.301852E-03 tol =   0.100000E-03
 Iteration #         21
  pAp =   1.979950319347711E-007  rzold =   1.401369627738786E-007  alpha = 
  0.707780197333670     
 delta_qm =   0.652450E-05 delta_en =   0.287341E-04 tol =   0.100000E-03
 Charges are converged, exit!

%%%% ELECTRONS %%%%%%%%%%%%%%%%%%%%%%%%%%%%%%%%%%%%%%%%%%%%%%%%%%%%%%%%%%%%%%%%%
 number of electrons        =         90
 total electronic charge    =     90.0000000
 number of spin components  =  1

%%%% BOUNDARY %%%%%%%%%%%%%%%%%%%%%%%%%%%%%%%%%%%%%%%%%%%%%%%%%%%%%%%%%%%%%%%%%%
 boundary mode              = electronic           
 boundary is built as a function of a smooth density
 function type              =  2 
 using the modified SCCS function with parameters 
 rhomax                     =      0.0050000 
 rhomin                     =      0.0001000 

%%%% DIELECTRIC %%%%%%%%%%%%%%%%%%%%%%%%%%%%%%%%%%%%%%%%%%%%%%%%%%%%%%%%%%%%%%%%%
 dielectric build on homogeneous background
 environment bulk permitt.  =    100.0000000 
 dielectric flags
 need gradient              =  F 
 need factor depend. sqrt   =  T 
 need gradient of logarithm =  T 

%%%% COMPUTE ELECTROSTATIC POTENTIAL %%%%%%%%%%%%%%%%%%%%%%%%%%%%%%%%%%%%%%%%%%%
 Warning: bad guess with residual norm =   0.785969E+04, reset to no guess
 Iteration #          1
  pAp =    1276.48891303593       rzold =    1275.88978667601       alpha = 
  0.999530645073529     
 delta_qm =   0.112460E+00 delta_en =   0.853689E+04 tol =   0.100000E-03
 Iteration #          2
  pAp =    774.356732318071       rzold =    20.6622875694584       alpha = 
  2.668316385344116E-002
 delta_qm =   0.371104E-01 delta_en =   0.929600E+03 tol =   0.100000E-03
 Iteration #          3
  pAp =   0.494161837457224       rzold =  -2.206919381996505E-003  alpha = 
 -4.465985057349844E-003
 delta_qm =   0.365941E-01 delta_en =   0.903911E+03 tol =   0.100000E-03
 Iteration #          4
  pAp =   2.309447772408940E-004  rzold =   2.235708270766168E-003  alpha = 
   9.68070504765797     
 delta_qm =   0.767686E-02 delta_en =   0.397806E+02 tol =   0.100000E-03
 Iteration #          5
  pAp =   8.768614864724129E-002  rzold =   2.795798385314903E-002  alpha = 
  0.318841507860302     
 delta_qm =   0.170665E-01 delta_en =   0.196604E+03 tol =   0.100000E-03
 Iteration #          6
  pAp =  -6.871456685345303E-003  rzold =   8.797453851840607E-003  alpha = 
  -1.28028950114797     
 delta_qm =   0.426038E-01 delta_en =   0.122518E+04 tol =   0.100000E-03
 Iteration #          7
  pAp =   0.486405227170477       rzold =   6.403228893211017E-002  alpha = 
  0.131643916132644     
 delta_qm =   0.292556E-02 delta_en =   0.577725E+01 tol =   0.100000E-03
 Iteration #          8
  pAp =   3.171723238116171E-003  rzold =   1.232570765939870E-003  alpha = 
  0.388612332604389     
 delta_qm =   0.912995E-03 delta_en =   0.562653E+00 tol =   0.100000E-03
 Iteration #          9
  pAp =   5.087836907376004E-004  rzold =   1.879355240558263E-004  alpha = 
  0.369381974063221     
 delta_qm =   0.970580E-03 delta_en =   0.635867E+00 tol =   0.100000E-03
 Iteration #         10
  pAp =   8.053827996805202E-005  rzold =   4.952164044415266E-005  alpha = 
  0.614883263757271     
 delta_qm =   0.101116E-02 delta_en =   0.690148E+00 tol =   0.100000E-03
 Iteration #         11
  pAp =   5.679856116485183E-005  rzold =   6.309944166218812E-005  alpha = 
   1.11093380480271     
 delta_qm =   0.133534E-02 delta_en =   0.120362E+01 tol =   0.100000E-03
 Iteration #         12
  pAp =   7.890227232085778E-005  rzold =   1.484421015811402E-004  alpha = 
   1.88134127465299     
 delta_qm =   0.213500E-02 delta_en =   0.307680E+01 tol =   0.100000E-03
 Iteration #         13
  pAp =   7.022106043414274E-002  rzold =   7.296705591572927E-003  alpha = 
  0.103910501300620     
 delta_qm =   0.632725E-02 delta_en =   0.270230E+02 tol =   0.100000E-03
 Iteration #         14
  pAp =  -4.559767688054768E-003  rzold =   3.648642640379935E-003  alpha = 
 -0.800181695646094     
 delta_qm =   0.668533E-02 delta_en =   0.301682E+02 tol =   0.100000E-03
 Iteration #         15
  pAp =   1.358182289495825E-002  rzold =   2.990453116617742E-003  alpha = 
  0.220180541282705     
 delta_qm =   0.337803E-02 delta_en =   0.770249E+01 tol =   0.100000E-03
 Iteration #         16
  pAp =   1.317777717664527E-003  rzold =   6.257446969120288E-004  alpha = 
  0.474848442589411     
 delta_qm =   0.153167E-02 delta_en =   0.158356E+01 tol =   0.100000E-03
 Iteration #         17
  pAp =   2.676087999619441E-004  rzold =   1.932500766249468E-004  alpha = 
  0.722136479265362     
 delta_qm =   0.736115E-03 delta_en =   0.365759E+00 tol =   0.100000E-03
 Iteration #         18
  pAp =   9.985771381402628E-005  rzold =   5.893127398421100E-005  alpha = 
  0.590152445247884     
 delta_qm =   0.388374E-03 delta_en =   0.101813E+00 tol =   0.100000E-03
 Iteration #         19
  pAp =   2.348546071261550E-005  rzold =   1.169166215215942E-005  alpha = 
  0.497825539606260     
 delta_qm =   0.273554E-03 delta_en =   0.505113E-01 tol =   0.100000E-03
 Iteration #         20
  pAp =   6.444736431321850E-006  rzold =   4.330759594567266E-006  alpha = 
  0.671983973389429     
 delta_qm =   0.189013E-03 delta_en =   0.241149E-01 tol =   0.100000E-03
 Iteration #         21
  pAp =   2.234166544906856E-006  rzold =   1.515720833001727E-006  alpha = 
  0.678427862263473     
 delta_qm =   0.190641E-03 delta_en =   0.245323E-01 tol =   0.100000E-03
 Iteration #         22
  pAp =   2.792290538732562E-006  rzold =   1.111873322495075E-007  alpha = 
  3.981939941678708E-002
 delta_qm =   0.205102E-03 delta_en =   0.283951E-01 tol =   0.100000E-03
 Iteration #         23
  pAp =   8.995419422923709E-007  rzold =  -8.272840439411288E-008  alpha = 
 -9.196725633858698E-002
 delta_qm =   0.193920E-03 delta_en =   0.253833E-01 tol =   0.100000E-03
 Iteration #         24
  pAp =   4.533106163433858E-007  rzold =   3.042389689411141E-007  alpha = 
  0.671149004616850     
 delta_qm =   0.100938E-03 delta_en =   0.687729E-02 tol =   0.100000E-03
 Iteration #         25
  pAp =   2.056903787790342E-006  rzold =   7.195411387976547E-007  alpha = 
  0.349817596267170     
 delta_qm =   0.499594E-04 delta_en =   0.168476E-02 tol =   0.100000E-03
 Iteration #         26
  pAp =   3.452112813362580E-007  rzold =   1.981845765789783E-007  alpha = 
  0.574096465827644     
 delta_qm =   0.330236E-04 delta_en =   0.736125E-03 tol =   0.100000E-03
 Iteration #         27
  pAp =   6.528154948238269E-008  rzold =   5.416235629006219E-008  alpha = 
  0.829673264797105     
 delta_qm =   0.166275E-04 delta_en =   0.186621E-03 tol =   0.100000E-03
 Iteration #         28
  pAp =   3.079827347530417E-008  rzold =   2.020682635472359E-008  alpha = 
  0.656102569221180     
 delta_qm =   0.943557E-05 delta_en =   0.600953E-04 tol =   0.100000E-03
 Charges are converged, exit!

%%%% ELECTRONS %%%%%%%%%%%%%%%%%%%%%%%%%%%%%%%%%%%%%%%%%%%%%%%%%%%%%%%%%%%%%%%%%
 number of electrons        =         90
 total electronic charge    =     90.0000000
 number of spin components  =  1

%%%% BOUNDARY %%%%%%%%%%%%%%%%%%%%%%%%%%%%%%%%%%%%%%%%%%%%%%%%%%%%%%%%%%%%%%%%%%
 boundary mode              = electronic           
 boundary is built as a function of a smooth density
 function type              =  2 
 using the modified SCCS function with parameters 
 rhomax                     =      0.0050000 
 rhomin                     =      0.0001000 

%%%% DIELECTRIC %%%%%%%%%%%%%%%%%%%%%%%%%%%%%%%%%%%%%%%%%%%%%%%%%%%%%%%%%%%%%%%%%
 dielectric build on homogeneous background
 environment bulk permitt.  =    100.0000000 
 dielectric flags
 need gradient              =  F 
 need factor depend. sqrt   =  T 
 need gradient of logarithm =  T 

%%%% COMPUTE ELECTROSTATIC POTENTIAL %%%%%%%%%%%%%%%%%%%%%%%%%%%%%%%%%%%%%%%%%%%
 Warning: bad guess with residual norm =   0.730309E+04, reset to no guess
 Iteration #          1
  pAp =    1277.66289857746       rzold =    1274.61396668206       alpha = 
  0.997613664841644     
 delta_qm =   0.166447E+00 delta_en =   0.187007E+05 tol =   0.100000E-03
 Iteration #          2
  pAp =    3100.26363320178       rzold =    94.8521279149875       alpha = 
  3.059485874013541E-002
 delta_qm =   0.152451E-01 delta_en =   0.156880E+03 tol =   0.100000E-03
 Iteration #          3
  pAp =    1.62433380467213       rzold =   0.237934793113453       alpha = 
  0.146481463618545     
 delta_qm =   0.124593E-01 delta_en =   0.104783E+03 tol =   0.100000E-03
 Iteration #          4
  pAp =   4.659870514346413E-003  rzold =   8.686993710705812E-003  alpha = 
   1.86421354068982     
 delta_qm =   0.369396E-01 delta_en =   0.921061E+03 tol =   0.100000E-03
 Iteration #          5
  pAp =   -1.13542191104555       rzold =   0.151220944052157       alpha = 
 -0.133184803447122     
 delta_qm =   0.648915E-02 delta_en =   0.284236E+02 tol =   0.100000E-03
 Iteration #          6
  pAp =   5.079365303001528E-002  rzold =  -1.028827164683627E-002  alpha = 
 -0.202550339129116     
 delta_qm =   0.266035E-02 delta_en =   0.477729E+01 tol =   0.100000E-03
 Iteration #          7
  pAp =   1.227611812882422E-002  rzold =   5.321826880593716E-003  alpha = 
  0.433510562927715     
 delta_qm =   0.155183E-02 delta_en =   0.162552E+01 tol =   0.100000E-03
 Iteration #          8
  pAp =   1.578146804692690E-003  rzold =   8.323107426209052E-004  alpha = 
  0.527397540042531     
 delta_qm =   0.207276E-02 delta_en =   0.290004E+01 tol =   0.100000E-03
 Iteration #          9
  pAp =   5.693616751925722E-004  rzold =   3.410383524258395E-004  alpha = 
  0.598983681700199     
 delta_qm =   0.234039E-02 delta_en =   0.369726E+01 tol =   0.100000E-03
 Iteration #         10
  pAp =   2.553145704228191E-004  rzold =   4.786959780603906E-004  alpha = 
   1.87492620287058     
 delta_qm =   0.242123E-02 delta_en =   0.395708E+01 tol =   0.100000E-03
 Iteration #         11
  pAp =   7.251942843188138E-004  rzold =   1.664023840478652E-003  alpha = 
   2.29459039661585     
 delta_qm =   0.324702E-02 delta_en =   0.711661E+01 tol =   0.100000E-03
 Iteration #         12
  pAp =   7.022948305573106E-003  rzold =   3.739648500393019E-003  alpha = 
  0.532489823031361     
 delta_qm =   0.313523E-02 delta_en =   0.663504E+01 tol =   0.100000E-03
 Iteration #         13
  pAp =   0.229366660749883       rzold =   9.654678981657182E-003  alpha = 
  4.209277385864425E-002
 delta_qm =   0.304224E-02 delta_en =   0.624726E+01 tol =   0.100000E-03
 Iteration #         14
  pAp =   4.323388914925566E-003  rzold =   1.760073554044655E-003  alpha = 
  0.407105071664587     
 delta_qm =   0.226992E-02 delta_en =   0.347796E+01 tol =   0.100000E-03
 Iteration #         15
  pAp =   1.665478133694482E-003  rzold =   6.283274182906684E-004  alpha = 
  0.377265486456353     
 delta_qm =   0.177915E-02 delta_en =   0.213662E+01 tol =   0.100000E-03
 Iteration #         16
  pAp =   3.322165925246330E-004  rzold =   2.793507361071294E-004  alpha = 
  0.840869307532905     
 delta_qm =   0.938043E-03 delta_en =   0.593950E+00 tol =   0.100000E-03
 Iteration #         17
  pAp =   2.848835741087614E-004  rzold =   1.780695873920243E-004  alpha = 
  0.625060914617850     
 delta_qm =   0.535152E-03 delta_en =   0.193311E+00 tol =   0.100000E-03
 Iteration #         18
  pAp =   1.084424469017970E-004  rzold =   6.238451801681894E-005  alpha = 
  0.575277668469736     
 delta_qm =   0.271018E-03 delta_en =   0.495793E-01 tol =   0.100000E-03
 Iteration #         19
  pAp =   1.193225620528552E-005  rzold =   6.713899281115794E-006  alpha = 
  0.562668045808621     
 delta_qm =   0.142055E-03 delta_en =   0.136212E-01 tol =   0.100000E-03
 Iteration #         20
  pAp =   2.064228921544246E-006  rzold =   1.487996587468590E-006  alpha = 
  0.720848628724484     
 delta_qm =   0.760051E-04 delta_en =   0.389932E-02 tol =   0.100000E-03
 Iteration #         21
  pAp =   4.969602796790060E-007  rzold =   4.518431088505041E-007  alpha = 
  0.909213728594881     
 delta_qm =   0.297002E-04 delta_en =   0.595418E-03 tol =   0.100000E-03
 Iteration #         22
  pAp =   1.529015464809556E-007  rzold =   1.042159647027605E-007  alpha = 
  0.681588689593411     
 delta_qm =   0.173252E-04 delta_en =   0.202610E-03 tol =   0.100000E-03
 Iteration #         23
  pAp =   8.541445751254314E-007  rzold =   4.659163667777157E-008  alpha = 
  5.454771713667979E-002
 delta_qm =   0.164405E-04 delta_en =   0.182446E-03 tol =   0.100000E-03
 Iteration #         24
  pAp =   9.815114559894850E-008  rzold =   3.259225991271952E-008  alpha = 
  0.332061940936415     
 delta_qm =   0.872525E-05 delta_en =   0.513877E-04 tol =   0.100000E-03
 Charges are converged, exit!

%%%% ELECTRONS %%%%%%%%%%%%%%%%%%%%%%%%%%%%%%%%%%%%%%%%%%%%%%%%%%%%%%%%%%%%%%%%%
 number of electrons        =         90
 total electronic charge    =     90.0000000
 number of spin components  =  1

%%%% BOUNDARY %%%%%%%%%%%%%%%%%%%%%%%%%%%%%%%%%%%%%%%%%%%%%%%%%%%%%%%%%%%%%%%%%%
 boundary mode              = electronic           
 boundary is built as a function of a smooth density
 function type              =  2 
 using the modified SCCS function with parameters 
 rhomax                     =      0.0050000 
 rhomin                     =      0.0001000 

%%%% DIELECTRIC %%%%%%%%%%%%%%%%%%%%%%%%%%%%%%%%%%%%%%%%%%%%%%%%%%%%%%%%%%%%%%%%%
 dielectric build on homogeneous background
 environment bulk permitt.  =    100.0000000 
 dielectric flags
 need gradient              =  F 
 need factor depend. sqrt   =  T 
 need gradient of logarithm =  T 

%%%% COMPUTE ELECTROSTATIC POTENTIAL %%%%%%%%%%%%%%%%%%%%%%%%%%%%%%%%%%%%%%%%%%%
 Warning: bad guess with residual norm =   0.193028E+04, reset to no guess
 Iteration #          1
  pAp =    1273.02131566378       rzold =    1272.24686726470       alpha = 
  0.999391645379739     
 delta_qm =   0.709277E-01 delta_en =   0.339575E+04 tol =   0.100000E-03
 Iteration #          2
  pAp =    686.019594490860       rzold =    22.1301811134941       alpha = 
  3.225881781105442E-002
 delta_qm =   0.150489E-01 delta_en =   0.152868E+03 tol =   0.100000E-03
 Iteration #          3
  pAp =    1.18610776562143       rzold =   0.181611173735441       alpha = 
  0.153115238766093     
 delta_qm =   0.150490E-01 delta_en =   0.152869E+03 tol =   0.100000E-03
 Iteration #          4
  pAp =  -1.723105563840846E-002  rzold =   1.652005650319716E-002  alpha = 
 -0.958737343194084     
 delta_qm =   0.806344E-02 delta_en =   0.438879E+02 tol =   0.100000E-03
 Iteration #          5
  pAp =   0.269590324802209       rzold =   1.464151234478374E-002  alpha = 
  5.431022925442830E-002
 delta_qm =   0.791085E-02 delta_en =   0.422425E+02 tol =   0.100000E-03
 Iteration #          6
  pAp =   1.129234623940749E-002  rzold =  -1.225968754567768E-002  alpha = 
  -1.08566344723778     
 delta_qm =   0.171902E-02 delta_en =   0.199465E+01 tol =   0.100000E-03
 Iteration #          7
  pAp =   9.996396212725824E-003  rzold =   3.360468444747554E-003  alpha = 
  0.336167992268008     
 delta_qm =   0.100125E-02 delta_en =   0.676682E+00 tol =   0.100000E-03
 Iteration #          8
  pAp =   8.092160992846227E-004  rzold =   4.052022680901144E-004  alpha = 
  0.500734313675084     
 delta_qm =   0.962137E-03 delta_en =   0.624853E+00 tol =   0.100000E-03
 Iteration #          9
  pAp =   2.344314451504987E-004  rzold =   1.275037365302129E-004  alpha = 
  0.543884957277634     
 delta_qm =   0.106093E-02 delta_en =   0.759763E+00 tol =   0.100000E-03
 Iteration #         10
  pAp =   1.005469457853181E-004  rzold =   1.478034587881119E-004  alpha = 
   1.46999451483781     
 delta_qm =   0.121281E-02 delta_en =   0.992870E+00 tol =   0.100000E-03
 Iteration #         11
  pAp =   1.007522620969169E-004  rzold =   4.626065854836149E-004  alpha = 
   4.59152554846479     
 delta_qm =   0.309808E-02 delta_en =   0.647870E+01 tol =   0.100000E-03
 Iteration #         12
  pAp =   2.101249181598616E-003  rzold =   4.598067041534241E-003  alpha = 
   2.18825405468383     
 delta_qm =   0.106021E-01 delta_en =   0.758730E+02 tol =   0.100000E-03
 Iteration #         13
  pAp =   1.189371066738491E-002  rzold =   2.847239800620410E-002  alpha = 
   2.39390370275960     
 delta_qm =   0.485269E-01 delta_en =   0.158953E+04 tol =   0.100000E-03
 Iteration #         14
  pAp =  -0.866164131845986       rzold =   0.419410644537445       alpha = 
 -0.484216130773724     
 delta_qm =   0.591272E-01 delta_en =   0.235982E+04 tol =   0.100000E-03
 Iteration #         15
  pAp =    71.4662952676426       rzold =    1.91903271805251       alpha = 
  2.685227645935336E-002
 delta_qm =   0.299466E-01 delta_en =   0.605338E+03 tol =   0.100000E-03
 Iteration #         16
  pAp =   0.293071361501989       rzold =   0.103612225187239       alpha = 
  0.353539235823751     
 delta_qm =   0.805767E-02 delta_en =   0.438251E+02 tol =   0.100000E-03
 Iteration #         17
  pAp =   3.182294842194788E-002  rzold =   1.589236896494100E-002  alpha = 
  0.499399639348950     
 delta_qm =   0.287871E-02 delta_en =   0.559372E+01 tol =   0.100000E-03
 Iteration #         18
  pAp =   4.981637324646608E-003  rzold =   2.871331835117544E-003  alpha = 
  0.576383154372089     
 delta_qm =   0.152133E-02 delta_en =   0.156225E+01 tol =   0.100000E-03
 Iteration #         19
  pAp =   5.182958184684675E-004  rzold =   2.874909853233168E-004  alpha = 
  0.554685133622793     
 delta_qm =   0.888835E-03 delta_en =   0.533269E+00 tol =   0.100000E-03
 Iteration #         20
  pAp =   7.415883752180048E-005  rzold =   5.569484220418511E-005  alpha = 
  0.751020971543850     
 delta_qm =   0.420003E-03 delta_en =   0.119072E+00 tol =   0.100000E-03
 Iteration #         21
  pAp =   1.992662739302376E-005  rzold =   1.700119999628826E-005  alpha = 
  0.853190038683632     
 delta_qm =   0.155903E-03 delta_en =   0.164064E-01 tol =   0.100000E-03
 Iteration #         22
  pAp =   7.256896385675115E-006  rzold =   4.383380397984907E-006  alpha = 
  0.604029624377380     
 delta_qm =   0.781027E-04 delta_en =   0.411753E-02 tol =   0.100000E-03
 Iteration #         23
  pAp =   1.951123557746327E-006  rzold =   9.461298997808815E-007  alpha = 
  0.484915420156027     
 delta_qm =   0.449345E-04 delta_en =   0.136290E-02 tol =   0.100000E-03
 Iteration #         24
  pAp =   1.076870712413242E-005  rzold =   4.923430153525127E-007  alpha = 
  4.571978879889708E-002
 delta_qm =   0.411967E-04 delta_en =   0.114559E-02 tol =   0.100000E-03
 Iteration #         25
  pAp =   3.429256825625933E-007  rzold =   1.825637506410511E-007  alpha = 
  0.532371181058241     
 delta_qm =   0.196568E-04 delta_en =   0.260814E-03 tol =   0.100000E-03
 Iteration #         26
  pAp =   6.604848858066632E-008  rzold =   3.704891201584985E-008  alpha = 
  0.560935046539351     
 delta_qm =   0.184371E-04 delta_en =   0.229450E-03 tol =   0.100000E-03
 Iteration #         27
  pAp =   1.040832688491389E-007  rzold =   3.418071850593754E-008  alpha = 
  0.328397819206466     
 delta_qm =   0.211188E-04 delta_en =   0.301052E-03 tol =   0.100000E-03
 Iteration #         28
  pAp =  -1.206836134868488E-007  rzold =   3.938294942489619E-008  alpha = 
 -0.326332202749198     
 delta_qm =   0.146774E-04 delta_en =   0.145413E-03 tol =   0.100000E-03
 Iteration #         29
  pAp =   6.532571395010468E-008  rzold =  -5.805184913584466E-010  alpha = 
 -8.886523487547990E-003
 delta_qm =   0.146881E-04 delta_en =   0.145625E-03 tol =   0.100000E-03
 Iteration #         30
  pAp =   3.071435731490876E-011  rzold =   5.837968513236829E-010  alpha = 
   19.0072950359377     
 delta_qm =   0.680365E-05 delta_en =   0.312455E-04 tol =   0.100000E-03
 Charges are converged, exit!

%%%% ELECTRONS %%%%%%%%%%%%%%%%%%%%%%%%%%%%%%%%%%%%%%%%%%%%%%%%%%%%%%%%%%%%%%%%%
 number of electrons        =         90
 total electronic charge    =     90.0000000
 number of spin components  =  1

%%%% BOUNDARY %%%%%%%%%%%%%%%%%%%%%%%%%%%%%%%%%%%%%%%%%%%%%%%%%%%%%%%%%%%%%%%%%%
 boundary mode              = electronic           
 boundary is built as a function of a smooth density
 function type              =  2 
 using the modified SCCS function with parameters 
 rhomax                     =      0.0050000 
 rhomin                     =      0.0001000 

%%%% DIELECTRIC %%%%%%%%%%%%%%%%%%%%%%%%%%%%%%%%%%%%%%%%%%%%%%%%%%%%%%%%%%%%%%%%%
 dielectric build on homogeneous background
 environment bulk permitt.  =    100.0000000 
 dielectric flags
 need gradient              =  F 
 need factor depend. sqrt   =  T 
 need gradient of logarithm =  T 

%%%% COMPUTE ELECTROSTATIC POTENTIAL %%%%%%%%%%%%%%%%%%%%%%%%%%%%%%%%%%%%%%%%%%%
 Warning: bad guess with residual norm =   0.108795E+05, reset to no guess
 Iteration #          1
  pAp =    1272.68426548906       rzold =    1270.46697951411       alpha = 
  0.998257787862181     
 delta_qm =   0.143291E+00 delta_en =   0.138593E+05 tol =   0.100000E-03
 Iteration #          2
  pAp =    2486.16607160909       rzold =    72.0081032192451       alpha = 
  2.896351295335635E-002
 delta_qm =   0.176839E-01 delta_en =   0.211086E+03 tol =   0.100000E-03
 Iteration #          3
  pAp =    2.69334884829259       rzold =   0.362698774126478       alpha = 
  0.134664610696979     
 delta_qm =   0.121217E-01 delta_en =   0.991816E+02 tol =   0.100000E-03
 Iteration #          4
  pAp =   8.924950750252675E-003  rzold =   8.105656694770237E-003  alpha = 
  0.908201840165981     
 delta_qm =   0.264576E-01 delta_en =   0.472502E+03 tol =   0.100000E-03
 Iteration #          5
  pAp =  -0.201537485622959       rzold =   3.984551378989288E-002  alpha = 
 -0.197707705178166     
 delta_qm =   0.561341E-02 delta_en =   0.212695E+02 tol =   0.100000E-03
 Iteration #          6
  pAp =   1.407046819948300E-002  rzold =  -1.263188263190220E-003  alpha = 
 -8.977585147000544E-002
 delta_qm =   0.422798E-02 delta_en =   0.120662E+02 tol =   0.100000E-03
 Iteration #          7
  pAp =   1.041892803495045E-003  rzold =   1.280802956195502E-003  alpha = 
   1.22930396668355     
 delta_qm =   0.155777E-02 delta_en =   0.163798E+01 tol =   0.100000E-03
 Iteration #          8
  pAp =   2.176070840736647E-003  rzold =   9.654338101799466E-004  alpha = 
  0.443659182461692     
 delta_qm =   0.164183E-02 delta_en =   0.181954E+01 tol =   0.100000E-03
 Iteration #          9
  pAp =   5.937634343160945E-004  rzold =   2.996267730306075E-004  alpha = 
  0.504623147391557     
 delta_qm =   0.186729E-02 delta_en =   0.235357E+01 tol =   0.100000E-03
 Iteration #         10
  pAp =   2.483393178730289E-004  rzold =   2.823135661348811E-004  alpha = 
   1.13680575654646     
 delta_qm =   0.206740E-02 delta_en =   0.288503E+01 tol =   0.100000E-03
 Iteration #         11
  pAp =   2.293748575103646E-004  rzold =   7.065057525475414E-004  alpha = 
   3.08013598445774     
 delta_qm =   0.315715E-02 delta_en =   0.672811E+01 tol =   0.100000E-03
 Iteration #         12
  pAp =   3.089260490927399E-003  rzold =   4.459124597488816E-003  alpha = 
   1.44342783995861     
 delta_qm =   0.747415E-02 delta_en =   0.377075E+02 tol =   0.100000E-03
 Iteration #         13
  pAp =   0.994398246107269       rzold =   4.426418784873370E-002  alpha = 
  4.451354175453641E-002
 delta_qm =   0.839835E-02 delta_en =   0.476093E+02 tol =   0.100000E-03
 Iteration #         14
  pAp =   1.865110740136457E-002  rzold =   1.252956246163604E-002  alpha = 
  0.671786516049945     
 delta_qm =   0.984170E-02 delta_en =   0.653799E+02 tol =   0.100000E-03
 Iteration #         15
  pAp =   3.286705076160963E-002  rzold =   1.368270796539207E-002  alpha = 
  0.416304707855752     
 delta_qm =   0.946989E-02 delta_en =   0.605332E+02 tol =   0.100000E-03
 Iteration #         16
  pAp =   6.554219658530092E-003  rzold =   7.959642793742609E-003  alpha = 
   1.21443027674292     
 delta_qm =   0.670291E-02 delta_en =   0.303271E+02 tol =   0.100000E-03
 Iteration #         17
  pAp =   1.428137149862340E-002  rzold =   1.105003408670990E-002  alpha = 
  0.773737598505509     
 delta_qm =   0.518867E-02 delta_en =   0.181726E+02 tol =   0.100000E-03
 Iteration #         18
  pAp =   1.245813496638552E-002  rzold =   7.447893164980235E-003  alpha = 
  0.597833719499436     
 delta_qm =   0.371780E-02 delta_en =   0.932989E+01 tol =   0.100000E-03
 Iteration #         19
  pAp =   3.408876037040369E-003  rzold =   1.659730557549293E-003  alpha = 
  0.486884984820478     
 delta_qm =   0.231339E-02 delta_en =   0.361243E+01 tol =   0.100000E-03
 Iteration #         20
  pAp =   4.940822412036069E-004  rzold =   3.494478083684201E-004  alpha = 
  0.707266481622876     
 delta_qm =   0.123639E-02 delta_en =   0.103184E+01 tol =   0.100000E-03
 Iteration #         21
  pAp =   1.151784831019029E-004  rzold =   1.055874211933895E-004  alpha = 
  0.916728700967282     
 delta_qm =   0.520337E-03 delta_en =   0.182756E+00 tol =   0.100000E-03
 Iteration #         22
  pAp =   7.958569334698374E-005  rzold =   4.137017105643045E-005  alpha = 
  0.519819195091530     
 delta_qm =   0.246444E-03 delta_en =   0.409957E-01 tol =   0.100000E-03
 Iteration #         23
  pAp =   1.132045046417457E-003  rzold =   4.226696429323248E-005  alpha = 
  3.733682191092416E-002
 delta_qm =   0.236570E-03 delta_en =   0.377766E-01 tol =   0.100000E-03
 Iteration #         24
  pAp =   1.887331298485432E-005  rzold =   9.389853254144082E-006  alpha = 
  0.497520136590717     
 delta_qm =   0.154760E-03 delta_en =   0.161666E-01 tol =   0.100000E-03
 Iteration #         25
  pAp =   1.945581158771514E-006  rzold =   1.474507065203122E-006  alpha = 
  0.757874868676340     
 delta_qm =   0.878506E-04 delta_en =   0.520947E-02 tol =   0.100000E-03
 Iteration #         26
  pAp =   1.132229034125084E-006  rzold =   6.687582008051422E-007  alpha = 
  0.590656290069364     
 delta_qm =   0.640450E-04 delta_en =   0.276869E-02 tol =   0.100000E-03
 Iteration #         27
  pAp =   1.861035641634262E-006  rzold =   5.042049906065161E-007  alpha = 
  0.270927100656573     
 delta_qm =   0.373726E-04 delta_en =   0.942782E-03 tol =   0.100000E-03
 Iteration #         28
  pAp =   6.042348980208340E-007  rzold =   2.685701935463717E-007  alpha = 
  0.444479778354529     
 delta_qm =   0.251442E-04 delta_en =   0.426756E-03 tol =   0.100000E-03
 Iteration #         29
  pAp =   2.565925559754006E-007  rzold =   1.100108579634651E-008  alpha = 
  4.287375272648664E-002
 delta_qm =   0.249388E-04 delta_en =   0.419811E-03 tol =   0.100000E-03
 Iteration #         30
  pAp =   1.060638595640461E-009  rzold =  -1.145724162212731E-008  alpha = 
  -10.8022107334392     
 delta_qm =   0.913744E-04 delta_en =   0.563577E-02 tol =   0.100000E-03
 Iteration #         31
  pAp =  -1.955111933451954E-006  rzold =   5.237948632963974E-007  alpha = 
 -0.267910422075724     
 delta_qm =   0.427635E-04 delta_en =   0.123438E-02 tol =   0.100000E-03
 Iteration #         32
  pAp =   2.060509104520402E-007  rzold =   1.037945830490078E-007  alpha = 
  0.503732707714323     
 delta_qm =   0.225138E-04 delta_en =   0.342139E-03 tol =   0.100000E-03
 Iteration #         33
  pAp =   8.335984191767083E-008  rzold =   3.913246714429021E-008  alpha = 
  0.469440275365911     
 delta_qm =   0.143568E-04 delta_en =   0.139129E-03 tol =   0.100000E-03
 Iteration #         34
  pAp =   2.282263605122902E-006  rzold =   8.616581993235142E-008  alpha = 
  3.775454322583009E-002
 delta_qm =   0.123896E-04 delta_en =   0.103614E-03 tol =   0.100000E-03
 Iteration #         35
  pAp =   1.814711279050606E-008  rzold =   1.204527413684829E-008  alpha = 
  0.663757054684201     
 delta_qm =   0.528312E-05 delta_en =   0.188402E-04 tol =   0.100000E-03
 Charges are converged, exit!

%%%% ELECTRONS %%%%%%%%%%%%%%%%%%%%%%%%%%%%%%%%%%%%%%%%%%%%%%%%%%%%%%%%%%%%%%%%%
 number of electrons        =         90
 total electronic charge    =     90.0000000
 number of spin components  =  1

%%%% BOUNDARY %%%%%%%%%%%%%%%%%%%%%%%%%%%%%%%%%%%%%%%%%%%%%%%%%%%%%%%%%%%%%%%%%%
 boundary mode              = electronic           
 boundary is built as a function of a smooth density
 function type              =  2 
 using the modified SCCS function with parameters 
 rhomax                     =      0.0050000 
 rhomin                     =      0.0001000 

%%%% DIELECTRIC %%%%%%%%%%%%%%%%%%%%%%%%%%%%%%%%%%%%%%%%%%%%%%%%%%%%%%%%%%%%%%%%%
 dielectric build on homogeneous background
 environment bulk permitt.  =    100.0000000 
 dielectric flags
 need gradient              =  F 
 need factor depend. sqrt   =  T 
 need gradient of logarithm =  T 

%%%% COMPUTE ELECTROSTATIC POTENTIAL %%%%%%%%%%%%%%%%%%%%%%%%%%%%%%%%%%%%%%%%%%%
 Warning: bad guess with residual norm =   0.532927E+04, reset to no guess
 Iteration #          1
  pAp =    1271.22476052246       rzold =    1269.87458717360       alpha = 
  0.998937895649308     
 delta_qm =   0.104700E+00 delta_en =   0.739946E+04 tol =   0.100000E-03
 Iteration #          2
  pAp =    1471.21588483506       rzold =    42.8631077796203       alpha = 
  2.913447864548158E-002
 delta_qm =   0.157384E-01 delta_en =   0.167196E+03 tol =   0.100000E-03
 Iteration #          3
  pAp =    2.80693426099931       rzold =   0.368555507202857       alpha = 
  0.131301795102122     
 delta_qm =   0.111218E-01 delta_en =   0.834941E+02 tol =   0.100000E-03
 Iteration #          4
  pAp =   1.943662488047465E-003  rzold =   8.779034661344253E-003  alpha = 
   4.51674851746682     
 delta_qm =   0.571028E-01 delta_en =   0.220100E+04 tol =   0.100000E-03
 Iteration #          5
  pAp =   -8.35318524409048       rzold =   0.654180691927926       alpha = 
 -7.831511846223337E-002
 delta_qm =   0.760809E-02 delta_en =   0.390710E+02 tol =   0.100000E-03
 Iteration #          6
  pAp =   0.345652432492093       rzold =  -5.937003040380533E-002  alpha = 
 -0.171762223617979     
 delta_qm =   0.210459E-02 delta_en =   0.298977E+01 tol =   0.100000E-03
 Iteration #          7
  pAp =   1.464637666116972E-002  rzold =   4.509877355287304E-003  alpha = 
  0.307917614002365     
 delta_qm =   0.113825E-02 delta_en =   0.874531E+00 tol =   0.100000E-03
 Iteration #          8
  pAp =   1.575675388085669E-003  rzold =   6.763508884664018E-004  alpha = 
  0.429245067594867     
 delta_qm =   0.132321E-02 delta_en =   0.118185E+01 tol =   0.100000E-03
 Iteration #          9
  pAp =   4.319936391759367E-004  rzold =   2.160789518039784E-004  alpha = 
  0.500190123669799     
 delta_qm =   0.152389E-02 delta_en =   0.156751E+01 tol =   0.100000E-03
 Iteration #         10
  pAp =   1.466294680395061E-004  rzold =   2.199711452409633E-004  alpha = 
   1.50018375011561     
 delta_qm =   0.187798E-02 delta_en =   0.238060E+01 tol =   0.100000E-03
 Iteration #         11
  pAp =   4.903936907738247E-005  rzold =   7.754818571550665E-004  alpha = 
   15.8134550208299     
 delta_qm =   0.170110E-01 delta_en =   0.195327E+03 tol =   0.100000E-03
 Iteration #         12
  pAp =  -0.681351374707139       rzold =   0.111559399294786       alpha = 
 -0.163732551860978     
 delta_qm =   0.553577E-02 delta_en =   0.206852E+02 tol =   0.100000E-03
 Iteration #         13
  pAp =   0.588423749889336       rzold =   2.043915031985567E-002  alpha = 
  3.473542718780411E-002
 delta_qm =   0.447030E-02 delta_en =   0.134889E+02 tol =   0.100000E-03
 Iteration #         14
  pAp =   1.654640872191657E-002  rzold =   4.189090709243822E-003  alpha = 
  0.253172200665825     
 delta_qm =   0.241067E-02 delta_en =   0.392266E+01 tol =   0.100000E-03
 Iteration #         15
  pAp =   2.307682623248449E-003  rzold =   7.631774994303110E-004  alpha = 
  0.330711637615060     
 delta_qm =   0.164016E-02 delta_en =   0.181583E+01 tol =   0.100000E-03
 Iteration #         16
  pAp =   3.922158828999922E-004  rzold =   2.967458158065166E-004  alpha = 
  0.756587962762796     
 delta_qm =   0.729056E-03 delta_en =   0.358778E+00 tol =   0.100000E-03
 Iteration #         17
  pAp =   2.926110106524648E-004  rzold =   1.807393112751142E-004  alpha = 
  0.617677752016581     
 delta_qm =   0.469939E-03 delta_en =   0.149069E+00 tol =   0.100000E-03
 Iteration #         18
  pAp =   1.316670011922048E-004  rzold =   7.387986120671589E-005  alpha = 
  0.561111444308416     
 delta_qm =   0.290188E-03 delta_en =   0.568412E-01 tol =   0.100000E-03
 Iteration #         19
  pAp =   1.787206240054417E-005  rzold =   9.049743936740284E-006  alpha = 
  0.506362597327588     
 delta_qm =   0.173369E-03 delta_en =   0.202884E-01 tol =   0.100000E-03
 Iteration #         20
  pAp =   3.012673409018049E-006  rzold =   2.054069108581837E-006  alpha = 
  0.681809419644773     
 delta_qm =   0.866841E-04 delta_en =   0.507204E-02 tol =   0.100000E-03
 Iteration #         21
  pAp =   6.530778044500670E-007  rzold =   6.189598201132356E-007  alpha = 
  0.947758162803342     
 delta_qm =   0.335500E-04 delta_en =   0.759782E-03 tol =   0.100000E-03
 Iteration #         22
  pAp =   3.212051373500787E-007  rzold =   1.924146510185854E-007  alpha = 
  0.599039768186754     
 delta_qm =   0.173577E-04 delta_en =   0.203371E-03 tol =   0.100000E-03
 Iteration #         23
  pAp =   5.680721350318247E-006  rzold =   2.170440889104339E-007  alpha = 
  3.820713524318079E-002
 delta_qm =   0.158171E-04 delta_en =   0.168872E-03 tol =   0.100000E-03
 Iteration #         24
  pAp =   1.414264831292046E-007  rzold =   5.343450776369602E-008  alpha = 
  0.377825330740065     
 delta_qm =   0.968834E-05 delta_en =   0.633581E-04 tol =   0.100000E-03
 Charges are converged, exit!

%%%% ELECTRONS %%%%%%%%%%%%%%%%%%%%%%%%%%%%%%%%%%%%%%%%%%%%%%%%%%%%%%%%%%%%%%%%%
 number of electrons        =         90
 total electronic charge    =     90.0000000
 number of spin components  =  1

%%%% BOUNDARY %%%%%%%%%%%%%%%%%%%%%%%%%%%%%%%%%%%%%%%%%%%%%%%%%%%%%%%%%%%%%%%%%%
 boundary mode              = electronic           
 boundary is built as a function of a smooth density
 function type              =  2 
 using the modified SCCS function with parameters 
 rhomax                     =      0.0050000 
 rhomin                     =      0.0001000 

%%%% DIELECTRIC %%%%%%%%%%%%%%%%%%%%%%%%%%%%%%%%%%%%%%%%%%%%%%%%%%%%%%%%%%%%%%%%%
 dielectric build on homogeneous background
 environment bulk permitt.  =    100.0000000 
 dielectric flags
 need gradient              =  F 
 need factor depend. sqrt   =  T 
 need gradient of logarithm =  T 

%%%% COMPUTE ELECTROSTATIC POTENTIAL %%%%%%%%%%%%%%%%%%%%%%%%%%%%%%%%%%%%%%%%%%%
 Warning: bad guess with residual norm =   0.815564E+02, reset to no guess
 Iteration #          1
  pAp =    1271.04767365735       rzold =    1269.66870698964       alpha = 
  0.998915094456100     
 delta_qm =   0.701877E-01 delta_en =   0.332526E+04 tol =   0.100000E-03
 Iteration #          2
  pAp =    1323.22588768308       rzold =    41.0000176626869       alpha = 
  3.098489686781774E-002
 delta_qm =   0.110949E-01 delta_en =   0.830903E+02 tol =   0.100000E-03
 Iteration #          3
  pAp =    2.85282038028606       rzold =   0.383314893323979       alpha = 
  0.134363486735027     
 delta_qm =   0.518521E-02 delta_en =   0.181483E+02 tol =   0.100000E-03
 Iteration #          4
  pAp =   1.616446493331125E-002  rzold =   6.187270502966026E-003  alpha = 
  0.382769892383848     
 delta_qm =   0.342465E-02 delta_en =   0.791655E+01 tol =   0.100000E-03
 Iteration #          5
  pAp =   1.982128688601506E-002  rzold =  -5.744596587637661E-003  alpha = 
 -0.289819557159569     
 delta_qm =   0.727373E-02 delta_en =   0.357123E+02 tol =   0.100000E-03
 Iteration #          6
  pAp =  -1.506840900796606E-002  rzold =   9.266334637812849E-003  alpha = 
 -0.614951096224831     
 delta_qm =   0.168877E-02 delta_en =   0.192506E+01 tol =   0.100000E-03
 Iteration #          7
  pAp =   1.413410232493417E-002  rzold =   4.033425592083583E-003  alpha = 
  0.285368359401797     
 delta_qm =   0.859805E-03 delta_en =   0.499004E+00 tol =   0.100000E-03
 Iteration #          8
  pAp =   9.796979874033187E-004  rzold =   4.714696184335591E-004  alpha = 
  0.481239753980903     
 delta_qm =   0.934796E-03 delta_en =   0.589845E+00 tol =   0.100000E-03
 Iteration #          9
  pAp =   3.303271049947948E-004  rzold =   2.025011942126918E-004  alpha = 
  0.613032328109686     
 delta_qm =   0.105656E-02 delta_en =   0.753510E+00 tol =   0.100000E-03
 Iteration #         10
  pAp =   2.149242063437290E-004  rzold =   2.752086058837158E-004  alpha = 
   1.28049143726311     
 delta_qm =   0.126799E-02 delta_en =   0.108527E+01 tol =   0.100000E-03
 Iteration #         11
  pAp =   3.237690601491100E-004  rzold =   8.005536327028061E-004  alpha = 
   2.47260696353789     
 delta_qm =   0.200385E-02 delta_en =   0.271040E+01 tol =   0.100000E-03
 Iteration #         12
  pAp =   5.313492877365409E-003  rzold =   3.991182472532336E-003  alpha = 
  0.751141022421260     
 delta_qm =   0.307307E-02 delta_en =   0.637455E+01 tol =   0.100000E-03
 Iteration #         13
  pAp =   0.406146478690470       rzold =   1.836602034585132E-002  alpha = 
  4.522018855135344E-002
 delta_qm =   0.284588E-02 delta_en =   0.546683E+01 tol =   0.100000E-03
 Iteration #         14
  pAp =   6.697154872211146E-003  rzold =   4.095919938579323E-003  alpha = 
  0.611591043769159     
 delta_qm =   0.305671E-02 delta_en =   0.630684E+01 tol =   0.100000E-03
 Iteration #         15
  pAp =   3.460536532720378E-003  rzold =   1.664618562200049E-003  alpha = 
  0.481029038838514     
 delta_qm =   0.249768E-02 delta_en =   0.421092E+01 tol =   0.100000E-03
 Iteration #         16
  pAp =   2.657747553032229E-003  rzold =   1.653193915192442E-003  alpha = 
  0.622028195757836     
 delta_qm =   0.140737E-02 delta_en =   0.133696E+01 tol =   0.100000E-03
 Iteration #         17
  pAp =   1.573697597769123E-003  rzold =   1.067206620287603E-003  alpha = 
  0.678152284022342     
 delta_qm =   0.776962E-03 delta_en =   0.407477E+00 tol =   0.100000E-03
 Iteration #         18
  pAp =   6.637286752560939E-004  rzold =   3.931171016610223E-004  alpha = 
  0.592285848595198     
 delta_qm =   0.367874E-03 delta_en =   0.913484E-01 tol =   0.100000E-03
 Iteration #         19
  pAp =   9.857434734766384E-005  rzold =   5.137890300485485E-005  alpha = 
  0.521219814153530     
 delta_qm =   0.210373E-03 delta_en =   0.298734E-01 tol =   0.100000E-03
 Iteration #         20
  pAp =   1.378392538831872E-005  rzold =   7.888515193716047E-006  alpha = 
  0.572298164092010     
 delta_qm =   0.126520E-03 delta_en =   0.108049E-01 tol =   0.100000E-03
 Iteration #         21
  pAp =   2.181245835946523E-006  rzold =   1.810869524624447E-006  alpha = 
  0.830199647734178     
 delta_qm =   0.445614E-04 delta_en =   0.134036E-02 tol =   0.100000E-03
 Iteration #         22
  pAp =   1.124105427424655E-006  rzold =   6.307661032267318E-007  alpha = 
  0.561127175296918     
 delta_qm =   0.201290E-04 delta_en =   0.273495E-03 tol =   0.100000E-03
 Iteration #         23
  pAp =   9.248570894806499E-006  rzold =   4.488369352574811E-007  alpha = 
  4.853040976412083E-002
 delta_qm =   0.168634E-04 delta_en =   0.191953E-03 tol =   0.100000E-03
 Iteration #         24
  pAp =   6.596108767812754E-007  rzold =   2.218162600028841E-007  alpha = 
  0.336283508673004     
 delta_qm =   0.845969E-05 delta_en =   0.483073E-04 tol =   0.100000E-03
 Charges are converged, exit!

%%%% ELECTRONS %%%%%%%%%%%%%%%%%%%%%%%%%%%%%%%%%%%%%%%%%%%%%%%%%%%%%%%%%%%%%%%%%
 number of electrons        =         90
 total electronic charge    =     90.0000000
 number of spin components  =  1

%%%% BOUNDARY %%%%%%%%%%%%%%%%%%%%%%%%%%%%%%%%%%%%%%%%%%%%%%%%%%%%%%%%%%%%%%%%%%
 boundary mode              = electronic           
 boundary is built as a function of a smooth density
 function type              =  2 
 using the modified SCCS function with parameters 
 rhomax                     =      0.0050000 
 rhomin                     =      0.0001000 

%%%% DIELECTRIC %%%%%%%%%%%%%%%%%%%%%%%%%%%%%%%%%%%%%%%%%%%%%%%%%%%%%%%%%%%%%%%%%
 dielectric build on homogeneous background
 environment bulk permitt.  =    100.0000000 
 dielectric flags
 need gradient              =  F 
 need factor depend. sqrt   =  T 
 need gradient of logarithm =  T 

%%%% COMPUTE ELECTROSTATIC POTENTIAL %%%%%%%%%%%%%%%%%%%%%%%%%%%%%%%%%%%%%%%%%%%
 Warning: bad guess with residual norm =   0.125207E+03, reset to no guess
 Iteration #          1
  pAp =    1270.58373257273       rzold =    1269.58596909722       alpha = 
  0.999214720407694     
 delta_qm =   0.655554E-01 delta_en =   0.290082E+04 tol =   0.100000E-03
 Iteration #          2
  pAp =    961.605375359501       rzold =    29.5369748059389       alpha = 
  3.071631623824513E-002
 delta_qm =   0.119716E-01 delta_en =   0.967406E+02 tol =   0.100000E-03
 Iteration #          3
  pAp =    2.62938827536811       rzold =   0.352894292824351       alpha = 
  0.134211556402771     
 delta_qm =   0.752728E-02 delta_en =   0.382455E+02 tol =   0.100000E-03
 Iteration #          4
  pAp =   8.149344328886849E-003  rzold =   9.120277376852547E-003  alpha = 
   1.11914247438583     
 delta_qm =   0.934217E-02 delta_en =   0.589114E+02 tol =   0.100000E-03
 Iteration #          5
  pAp =   0.193678967639591       rzold =   4.590135149735068E-003  alpha = 
  2.369970888257035E-002
 delta_qm =   0.863455E-02 delta_en =   0.503249E+02 tol =   0.100000E-03
 Iteration #          6
  pAp =  -1.853412941580889E-003  rzold =  -4.746065674492862E-003  alpha = 
   2.56071680952257     
 delta_qm =   0.163260E-02 delta_en =   0.179914E+01 tol =   0.100000E-03
 Iteration #          7
  pAp =   1.579148718402713E-002  rzold =   4.442955742499964E-003  alpha = 
  0.281351318639194     
 delta_qm =   0.843081E-03 delta_en =   0.479780E+00 tol =   0.100000E-03
 Iteration #          8
  pAp =   1.170764225490663E-003  rzold =   5.107298053957793E-004  alpha = 
  0.436236258570110     
 delta_qm =   0.866651E-03 delta_en =   0.506982E+00 tol =   0.100000E-03
 Iteration #          9
  pAp =   3.161049993469062E-004  rzold =   1.650015686921556E-004  alpha = 
  0.521983420170702     
 delta_qm =   0.945834E-03 delta_en =   0.603856E+00 tol =   0.100000E-03
 Iteration #         10
  pAp =   1.478728716987675E-004  rzold =   1.672545590973653E-004  alpha = 
   1.13106993308469     
 delta_qm =   0.107912E-02 delta_en =   0.786040E+00 tol =   0.100000E-03
 Iteration #         11
  pAp =   1.442675556057400E-004  rzold =   4.046702567865258E-004  alpha = 
   2.80499835938459     
 delta_qm =   0.164455E-02 delta_en =   0.182556E+01 tol =   0.100000E-03
 Iteration #         12
  pAp =   3.030181754080500E-003  rzold =   2.216184719621768E-003  alpha = 
  0.731370227755286     
 delta_qm =   0.277775E-02 delta_en =   0.520823E+01 tol =   0.100000E-03
 Iteration #         13
  pAp =   0.328081211961595       rzold =   1.634724662556795E-002  alpha = 
  4.982682954573319E-002
 delta_qm =   0.254987E-02 delta_en =   0.438874E+01 tol =   0.100000E-03
 Iteration #         14
  pAp =   4.300286021496030E-003  rzold =   2.806454333122115E-003  alpha = 
  0.652620388293562     
 delta_qm =   0.291762E-02 delta_en =   0.574595E+01 tol =   0.100000E-03
 Iteration #         15
  pAp =   2.857954651204770E-003  rzold =   1.377757498364543E-003  alpha = 
  0.482078152564020     
 delta_qm =   0.246728E-02 delta_en =   0.410906E+01 tol =   0.100000E-03
 Iteration #         16
  pAp =   2.061818885746602E-003  rzold =   1.292125454985054E-003  alpha = 
  0.626692026112257     
 delta_qm =   0.151879E-02 delta_en =   0.155703E+01 tol =   0.100000E-03
 Iteration #         17
  pAp =   1.442650335767567E-003  rzold =   9.986953642284898E-004  alpha = 
  0.692264327306402     
 delta_qm =   0.868314E-03 delta_en =   0.508929E+00 tol =   0.100000E-03
 Iteration #         18
  pAp =   6.795320506052286E-004  rzold =   4.282048386017674E-004  alpha = 
  0.630146640206867     
 delta_qm =   0.451277E-03 delta_en =   0.137464E+00 tol =   0.100000E-03
 Iteration #         19
  pAp =   1.169251576627949E-004  rzold =   6.101760826029054E-005  alpha = 
  0.521851836507774     
 delta_qm =   0.267688E-03 delta_en =   0.483683E-01 tol =   0.100000E-03
 Iteration #         20
  pAp =   1.621682609857744E-005  rzold =   9.698583879133306E-006  alpha = 
  0.598056846646711     
 delta_qm =   0.160087E-03 delta_en =   0.172989E-01 tol =   0.100000E-03
 Iteration #         21
  pAp =   2.627802034699840E-006  rzold =   2.300807282972076E-006  alpha = 
  0.875563399597902     
 delta_qm =   0.528062E-04 delta_en =   0.188223E-02 tol =   0.100000E-03
 Iteration #         22
  pAp =   1.427563973245415E-006  rzold =   7.785978242024449E-007  alpha = 
  0.545403105426081     
 delta_qm =   0.308664E-04 delta_en =   0.643096E-03 tol =   0.100000E-03
 Iteration #         23
  pAp =   4.104965954471482E-005  rzold =   1.579671225444355E-006  alpha = 
  3.848195680462687E-002
 delta_qm =   0.227986E-04 delta_en =   0.350850E-03 tol =   0.100000E-03
 Iteration #         24
  pAp =   4.822851194430498E-007  rzold =   2.018933577842527E-007  alpha = 
  0.418618260537257     
 delta_qm =   0.117618E-04 delta_en =   0.933794E-04 tol =   0.100000E-03
 Charges are converged, exit!

%%%% ELECTRONS %%%%%%%%%%%%%%%%%%%%%%%%%%%%%%%%%%%%%%%%%%%%%%%%%%%%%%%%%%%%%%%%%
 number of electrons        =         90
 total electronic charge    =     90.0000000
 number of spin components  =  1

%%%% BOUNDARY %%%%%%%%%%%%%%%%%%%%%%%%%%%%%%%%%%%%%%%%%%%%%%%%%%%%%%%%%%%%%%%%%%
 boundary mode              = electronic           
 boundary is built as a function of a smooth density
 function type              =  2 
 using the modified SCCS function with parameters 
 rhomax                     =      0.0050000 
 rhomin                     =      0.0001000 

%%%% DIELECTRIC %%%%%%%%%%%%%%%%%%%%%%%%%%%%%%%%%%%%%%%%%%%%%%%%%%%%%%%%%%%%%%%%%
 dielectric build on homogeneous background
 environment bulk permitt.  =    100.0000000 
 dielectric flags
 need gradient              =  F 
 need factor depend. sqrt   =  T 
 need gradient of logarithm =  T 

%%%% COMPUTE ELECTROSTATIC POTENTIAL %%%%%%%%%%%%%%%%%%%%%%%%%%%%%%%%%%%%%%%%%%%
 Warning: bad guess with residual norm =   0.177824E+01, reset to no guess
 Iteration #          1
  pAp =    1270.74123573083       rzold =    1269.87714653643       alpha = 
  0.999320011682861     
 delta_qm =   0.614406E-01 delta_en =   0.254809E+04 tol =   0.100000E-03
 Iteration #          2
  pAp =    810.856459512465       rzold =    25.0705405479853       alpha = 
  3.091859262372929E-002
 delta_qm =   0.123693E-01 delta_en =   0.103275E+03 tol =   0.100000E-03
 Iteration #          3
  pAp =    2.71006380399694       rzold =   0.365698994953237       alpha = 
  0.134941101539339     
 delta_qm =   0.791968E-02 delta_en =   0.423369E+02 tol =   0.100000E-03
 Iteration #          4
  pAp =   6.914197780715944E-003  rzold =   9.887270889716138E-003  alpha = 
   1.42999538099593     
 delta_qm =   0.116389E-01 delta_en =   0.914386E+02 tol =   0.100000E-03
 Iteration #          5
  pAp =   0.321103734318813       rzold =   1.369332235156305E-002  alpha = 
  4.264454407735849E-002
 delta_qm =   0.102032E-01 delta_en =   0.702705E+02 tol =   0.100000E-03
 Iteration #          6
  pAp =  -1.371472151403566E-002  rzold =  -1.506498755905975E-002  alpha = 
   1.09845377054446     
 delta_qm =   0.160735E-02 delta_en =   0.174392E+01 tol =   0.100000E-03
 Iteration #          7
  pAp =   1.457991728326058E-002  rzold =   4.278750814826269E-003  alpha = 
  0.293468799012925     
 delta_qm =   0.828571E-03 delta_en =   0.463408E+00 tol =   0.100000E-03
 Iteration #          8
  pAp =   1.213382280654439E-003  rzold =   5.077384118664812E-004  alpha = 
  0.418448843337841     
 delta_qm =   0.831720E-03 delta_en =   0.466936E+00 tol =   0.100000E-03
 Iteration #          9
  pAp =   3.048455740367468E-004  rzold =   1.546778584246574E-004  alpha = 
  0.507397422165008     
 delta_qm =   0.895389E-03 delta_en =   0.541162E+00 tol =   0.100000E-03
 Iteration #         10
  pAp =   1.258776464831588E-004  rzold =   1.411452949807822E-004  alpha = 
   1.12128959290374     
 delta_qm =   0.100760E-02 delta_en =   0.685299E+00 tol =   0.100000E-03
 Iteration #         11
  pAp =   1.307901129236438E-004  rzold =   3.425801181433935E-004  alpha = 
   2.61931204496623     
 delta_qm =   0.156084E-02 delta_en =   0.164445E+01 tol =   0.100000E-03
 Iteration #         12
  pAp =   1.792212523124899E-003  rzold =   1.836577914701780E-003  alpha = 
   1.02475453720161     
 delta_qm =   0.283928E-02 delta_en =   0.544152E+01 tol =   0.100000E-03
 Iteration #         13
  pAp =   0.210774327660524       rzold =   9.883319606941096E-003  alpha = 
  4.689052844642125E-002
 delta_qm =   0.276647E-02 delta_en =   0.516601E+01 tol =   0.100000E-03
 Iteration #         14
  pAp =   4.799394981340146E-003  rzold =   3.296142380953168E-003  alpha = 
  0.686782895295852     
 delta_qm =   0.354890E-02 delta_en =   0.850142E+01 tol =   0.100000E-03
 Iteration #         15
  pAp =   1.955278672209881E-003  rzold =   1.577873170881814E-003  alpha = 
  0.806981221300021     
 delta_qm =   0.281129E-02 delta_en =   0.533474E+01 tol =   0.100000E-03
 Iteration #         16
  pAp =   3.103835447276769E-003  rzold =   1.979911418826109E-003  alpha = 
  0.637891876827180     
 delta_qm =   0.185477E-02 delta_en =   0.232211E+01 tol =   0.100000E-03
 Iteration #         17
  pAp =   4.703088492350465E-003  rzold =   2.319233037707212E-003  alpha = 
  0.493129789388277     
 delta_qm =   0.119997E-02 delta_en =   0.971946E+00 tol =   0.100000E-03
 Iteration #         18
  pAp =   1.481870710797560E-003  rzold =   9.133333267840910E-004  alpha = 
  0.616338065209835     
 delta_qm =   0.668513E-03 delta_en =   0.301664E+00 tol =   0.100000E-03
 Iteration #         19
  pAp =   2.348469246022885E-004  rzold =   1.248899068170773E-004  alpha = 
  0.531792813674598     
 delta_qm =   0.400507E-03 delta_en =   0.108274E+00 tol =   0.100000E-03
 Iteration #         20
  pAp =   3.240569768286341E-005  rzold =   2.018489468601777E-005  alpha = 
  0.622881040351488     
 delta_qm =   0.233476E-03 delta_en =   0.367950E-01 tol =   0.100000E-03
 Iteration #         21
  pAp =   5.703223688761040E-006  rzold =   5.054842675756962E-006  alpha = 
  0.886313241705424     
 delta_qm =   0.730257E-04 delta_en =   0.359961E-02 tol =   0.100000E-03
 Iteration #         22
  pAp =   2.511119208471558E-006  rzold =   1.522406657134960E-006  alpha = 
  0.606266182823556     
 delta_qm =   0.387879E-04 delta_en =   0.101554E-02 tol =   0.100000E-03
 Iteration #         23
  pAp =   4.963241182029400E-005  rzold =   1.923014486598435E-006  alpha = 
  3.874513480346610E-002
 delta_qm =   0.312037E-04 delta_en =   0.657226E-03 tol =   0.100000E-03
 Iteration #         24
  pAp =   9.589344493773256E-007  rzold =   3.646375487051652E-007  alpha = 
  0.380252840996524     
 delta_qm =   0.167115E-04 delta_en =   0.188510E-03 tol =   0.100000E-03
 Iteration #         25
  pAp =   7.070851257514701E-008  rzold =   4.322317785387859E-008  alpha = 
  0.611286764205968     
 delta_qm =   0.745833E-05 delta_en =   0.375480E-04 tol =   0.100000E-03
 Charges are converged, exit!

%%%% ELECTRONS %%%%%%%%%%%%%%%%%%%%%%%%%%%%%%%%%%%%%%%%%%%%%%%%%%%%%%%%%%%%%%%%%
 number of electrons        =         90
 total electronic charge    =     90.0000000
 number of spin components  =  1

%%%% BOUNDARY %%%%%%%%%%%%%%%%%%%%%%%%%%%%%%%%%%%%%%%%%%%%%%%%%%%%%%%%%%%%%%%%%%
 boundary mode              = electronic           
 boundary is built as a function of a smooth density
 function type              =  2 
 using the modified SCCS function with parameters 
 rhomax                     =      0.0050000 
 rhomin                     =      0.0001000 

%%%% DIELECTRIC %%%%%%%%%%%%%%%%%%%%%%%%%%%%%%%%%%%%%%%%%%%%%%%%%%%%%%%%%%%%%%%%%
 dielectric build on homogeneous background
 environment bulk permitt.  =    100.0000000 
 dielectric flags
 need gradient              =  F 
 need factor depend. sqrt   =  T 
 need gradient of logarithm =  T 

%%%% COMPUTE ELECTROSTATIC POTENTIAL %%%%%%%%%%%%%%%%%%%%%%%%%%%%%%%%%%%%%%%%%%%
 Warning: bad guess with residual norm =   0.136680E+03, reset to no guess
 Iteration #          1
  pAp =    1270.58520339030       rzold =    1269.99624276895       alpha = 
  0.999536465071540     
 delta_qm =   0.509700E-01 delta_en =   0.175361E+04 tol =   0.100000E-03
 Iteration #          2
  pAp =    528.079401815363       rzold =    16.4239673857600       alpha = 
  3.110132175066816E-002
 delta_qm =   0.127441E-01 delta_en =   0.109628E+03 tol =   0.100000E-03
 Iteration #          3
  pAp =    2.58569925296343       rzold =   0.350420035543198       alpha = 
  0.135522348603221     
 delta_qm =   0.946516E-02 delta_en =   0.604728E+02 tol =   0.100000E-03
 Iteration #          4
  pAp =  -7.405976353132863E-004  rzold =   1.171861626538924E-002  alpha = 
  -15.8231888769562     
 delta_qm =   0.116454E+00 delta_en =   0.915406E+04 tol =   0.100000E-03
 Iteration #          5
  pAp =    203.585267195871       rzold =    5.40575019884474       alpha = 
  2.655275734488107E-002
 delta_qm =   0.144581E-01 delta_en =   0.141101E+03 tol =   0.100000E-03
 Iteration #          6
  pAp =    1.75045668468823       rzold =  -0.265894510783231       alpha = 
 -0.151900080195694     
 delta_qm =   0.145958E-02 delta_en =   0.143799E+01 tol =   0.100000E-03
 Iteration #          7
  pAp =   1.223137142318893E-002  rzold =   3.833232414251461E-003  alpha = 
  0.313393509331603     
 delta_qm =   0.765926E-03 delta_en =   0.395984E+00 tol =   0.100000E-03
 Iteration #          8
  pAp =   1.193374649172910E-003  rzold =   4.841249456529337E-004  alpha = 
  0.405677249796169     
 delta_qm =   0.675125E-03 delta_en =   0.307661E+00 tol =   0.100000E-03
 Iteration #          9
  pAp =   2.705304712256227E-004  rzold =   1.225864764742077E-004  alpha = 
  0.453133711403513     
 delta_qm =   0.696072E-03 delta_en =   0.327048E+00 tol =   0.100000E-03
 Iteration #         10
  pAp =   9.029720464486165E-005  rzold =   8.652864821948679E-005  alpha = 
  0.958264971322240     
 delta_qm =   0.746291E-03 delta_en =   0.375942E+00 tol =   0.100000E-03
 Iteration #         11
  pAp =   6.801442790123276E-005  rzold =   1.661304105688150E-004  alpha = 
   2.44257601945960     
 delta_qm =   0.108017E-02 delta_en =   0.787567E+00 tol =   0.100000E-03
 Iteration #         12
  pAp =   7.305096630916607E-004  rzold =   8.060359293139856E-004  alpha = 
   1.10338845608514     
 delta_qm =   0.175622E-02 delta_en =   0.208190E+01 tol =   0.100000E-03
 Iteration #         13
  pAp =   1.625648259248492E-002  rzold =   1.534750316638936E-003  alpha = 
  9.440851106059207E-002
 delta_qm =   0.167881E-02 delta_en =   0.190243E+01 tol =   0.100000E-03
 Iteration #         14
  pAp =   9.434596136075824E-003  rzold =   2.842091570948912E-003  alpha = 
  0.301241465978748     
 delta_qm =   0.210333E-02 delta_en =   0.298621E+01 tol =   0.100000E-03
 Iteration #         15
  pAp =   6.442534078956754E-004  rzold =   5.651755035595491E-004  alpha = 
  0.877256521475892     
 delta_qm =   0.156360E-02 delta_en =   0.165026E+01 tol =   0.100000E-03
 Iteration #         16
  pAp =   9.088009880461566E-004  rzold =   6.580045249810501E-004  alpha = 
  0.724035882042451     
 delta_qm =   0.980741E-03 delta_en =   0.649250E+00 tol =   0.100000E-03
 Iteration #         17
  pAp =   1.799881400450873E-003  rzold =   7.519303813490924E-004  alpha = 
  0.417766626823708     
 delta_qm =   0.668079E-03 delta_en =   0.301273E+00 tol =   0.100000E-03
 Iteration #         18
  pAp =   6.044272442536849E-004  rzold =   3.212242392740772E-004  alpha = 
  0.531452283675115     
 delta_qm =   0.367634E-03 delta_en =   0.912296E-01 tol =   0.100000E-03
 Iteration #         19
  pAp =   8.060238050898979E-005  rzold =   4.199240199281658E-005  alpha = 
  0.520982156204841     
 delta_qm =   0.225638E-03 delta_en =   0.343661E-01 tol =   0.100000E-03
 Iteration #         20
  pAp =   1.090469067955466E-005  rzold =   6.771588167142640E-006  alpha = 
  0.620979390074656     
 delta_qm =   0.131373E-03 delta_en =   0.116498E-01 tol =   0.100000E-03
 Iteration #         21
  pAp =   1.811369590437812E-006  rzold =   1.611600554059891E-006  alpha = 
  0.889713817968183     
 delta_qm =   0.428630E-04 delta_en =   0.124013E-02 tol =   0.100000E-03
 Iteration #         22
  pAp =   6.775959093415423E-007  rzold =   4.659951701180261E-007  alpha = 
  0.687718393357569     
 delta_qm =   0.176048E-04 delta_en =   0.209203E-03 tol =   0.100000E-03
 Iteration #         23
  pAp =   2.134238053549712E-007  rzold =   8.748573320828584E-008  alpha = 
  0.409915534318103     
 delta_qm =   0.104427E-04 delta_en =   0.736094E-04 tol =   0.100000E-03
 Charges are converged, exit!

%%%% ELECTRONS %%%%%%%%%%%%%%%%%%%%%%%%%%%%%%%%%%%%%%%%%%%%%%%%%%%%%%%%%%%%%%%%%
 number of electrons        =         90
 total electronic charge    =     90.0000000
 number of spin components  =  1

%%%% BOUNDARY %%%%%%%%%%%%%%%%%%%%%%%%%%%%%%%%%%%%%%%%%%%%%%%%%%%%%%%%%%%%%%%%%%
 boundary mode              = electronic           
 boundary is built as a function of a smooth density
 function type              =  2 
 using the modified SCCS function with parameters 
 rhomax                     =      0.0050000 
 rhomin                     =      0.0001000 

%%%% DIELECTRIC %%%%%%%%%%%%%%%%%%%%%%%%%%%%%%%%%%%%%%%%%%%%%%%%%%%%%%%%%%%%%%%%%
 dielectric build on homogeneous background
 environment bulk permitt.  =    100.0000000 
 dielectric flags
 need gradient              =  F 
 need factor depend. sqrt   =  T 
 need gradient of logarithm =  T 

%%%% COMPUTE ELECTROSTATIC POTENTIAL %%%%%%%%%%%%%%%%%%%%%%%%%%%%%%%%%%%%%%%%%%%
 Warning: bad guess with residual norm =   0.327235E+02, reset to no guess
 Iteration #          1
  pAp =    1270.72579752199       rzold =    1270.37586975493       alpha = 
  0.999724623701084     
 delta_qm =   0.287842E-01 delta_en =   0.559257E+03 tol =   0.100000E-03
 Iteration #          2
  pAp =    262.530240545646       rzold =    8.65138799209201       alpha = 
  3.295387218672732E-002
 delta_qm =   0.104975E-01 delta_en =   0.743839E+02 tol =   0.100000E-03
 Iteration #          3
  pAp =    2.23509432349045       rzold =   0.310853583797493       alpha = 
  0.139078508021105     
 delta_qm =   0.762108E-02 delta_en =   0.392046E+02 tol =   0.100000E-03
 Iteration #          4
  pAp =  -7.111206658334401E-004  rzold =   1.474532133674434E-002  alpha = 
  -20.7353295231024     
 delta_qm =   0.951653E-01 delta_en =   0.611309E+04 tol =   0.100000E-03
 Iteration #          5
  pAp =    171.043025829135       rzold =   -4.63483961406802       alpha = 
 -2.709750714243109E-002
 delta_qm =   0.681049E-01 delta_en =   0.313084E+04 tol =   0.100000E-03
 Iteration #          6
  pAp =    15.0031526401817       rzold =    1.63362488779460       alpha = 
  0.108885440745260     
 delta_qm =   0.995177E-03 delta_en =   0.668504E+00 tol =   0.100000E-03
 Iteration #          7
  pAp =   8.198088387277997E-003  rzold =   2.673227732873196E-003  alpha = 
  0.326079398829315     
 delta_qm =   0.530295E-03 delta_en =   0.189818E+00 tol =   0.100000E-03
 Iteration #          8
  pAp =   9.245084047724692E-004  rzold =   3.614037540241468E-004  alpha = 
  0.390914514306759     
 delta_qm =   0.413938E-03 delta_en =   0.115658E+00 tol =   0.100000E-03
 Iteration #          9
  pAp =   2.081152535244450E-004  rzold =   9.004232816048033E-005  alpha = 
  0.432656072227325     
 delta_qm =   0.402951E-03 delta_en =   0.109600E+00 tol =   0.100000E-03
 Iteration #         10
  pAp =   5.527580452715922E-005  rzold =   5.168655919366345E-005  alpha = 
  0.935066610713332     
 delta_qm =   0.429424E-03 delta_en =   0.124473E+00 tol =   0.100000E-03
 Iteration #         11
  pAp =   3.836479767538638E-005  rzold =   9.106445430504078E-005  alpha = 
   2.37364615019109     
 delta_qm =   0.627901E-03 delta_en =   0.266125E+00 tol =   0.100000E-03
 Iteration #         12
  pAp =   4.066713308668237E-004  rzold =   4.196197759596680E-004  alpha = 
   1.03184007356812     
 delta_qm =   0.950041E-03 delta_en =   0.609240E+00 tol =   0.100000E-03
 Iteration #         13
  pAp =   2.529645181025380E-002  rzold =   1.348067105868572E-003  alpha = 
  5.329075856093538E-002
 delta_qm =   0.841861E-03 delta_en =   0.478392E+00 tol =   0.100000E-03
 Iteration #         14
  pAp =   1.308839426362009E-003  rzold =   7.374110482005053E-004  alpha = 
  0.563408339745831     
 delta_qm =   0.108348E-02 delta_en =   0.792404E+00 tol =   0.100000E-03
 Iteration #         15
  pAp =   3.262046173915681E-004  rzold =   2.598910450321504E-004  alpha = 
  0.796711729926813     
 delta_qm =   0.838808E-03 delta_en =   0.474929E+00 tol =   0.100000E-03
 Iteration #         16
  pAp =   4.590022632761016E-004  rzold =   2.843844964501722E-004  alpha = 
  0.619571011306991     
 delta_qm =   0.547137E-03 delta_en =   0.202067E+00 tol =   0.100000E-03
 Iteration #         17
  pAp =   6.383446490809747E-004  rzold =   2.932571316009411E-004  alpha = 
  0.459402506190259     
 delta_qm =   0.318165E-03 delta_en =   0.683295E-01 tol =   0.100000E-03
 Iteration #         18
  pAp =   1.766565799998338E-004  rzold =   1.019244140699237E-004  alpha = 
  0.576963587034344     
 delta_qm =   0.144613E-03 delta_en =   0.141161E-01 tol =   0.100000E-03
 Iteration #         19
  pAp =   2.292621496587549E-005  rzold =   1.231366012333789E-005  alpha = 
  0.537099566660530     
 delta_qm =   0.842630E-04 delta_en =   0.479267E-02 tol =   0.100000E-03
 Iteration #         20
  pAp =   2.881321791339564E-006  rzold =   1.726657462431806E-006  alpha = 
  0.599258808100382     
 delta_qm =   0.496253E-04 delta_en =   0.166230E-02 tol =   0.100000E-03
 Iteration #         21
  pAp =   4.333625536809250E-007  rzold =   3.730681724642588E-007  alpha = 
  0.860868502124760     
 delta_qm =   0.157566E-04 delta_en =   0.167582E-03 tol =   0.100000E-03
 Iteration #         22
  pAp =   1.746025784979427E-007  rzold =   1.072844714027271E-007  alpha = 
  0.614449524890557     
 delta_qm =   0.687754E-05 delta_en =   0.319279E-04 tol =   0.100000E-03
 Charges are converged, exit!

%%%% ELECTRONS %%%%%%%%%%%%%%%%%%%%%%%%%%%%%%%%%%%%%%%%%%%%%%%%%%%%%%%%%%%%%%%%%
 number of electrons        =         90
 total electronic charge    =     90.0000000
 number of spin components  =  1

%%%% BOUNDARY %%%%%%%%%%%%%%%%%%%%%%%%%%%%%%%%%%%%%%%%%%%%%%%%%%%%%%%%%%%%%%%%%%
 boundary mode              = electronic           
 boundary is built as a function of a smooth density
 function type              =  2 
 using the modified SCCS function with parameters 
 rhomax                     =      0.0050000 
 rhomin                     =      0.0001000 

%%%% DIELECTRIC %%%%%%%%%%%%%%%%%%%%%%%%%%%%%%%%%%%%%%%%%%%%%%%%%%%%%%%%%%%%%%%%%
 dielectric build on homogeneous background
 environment bulk permitt.  =    100.0000000 
 dielectric flags
 need gradient              =  F 
 need factor depend. sqrt   =  T 
 need gradient of logarithm =  T 
