
     Program PWSCF v.7.0 starts on 22Apr2022 at 20:48:24 

     This program is part of the open-source Quantum ESPRESSO suite
     for quantum simulation of materials; please cite
         "P. Giannozzi et al., J. Phys.:Condens. Matter 21 395502 (2009);
         "P. Giannozzi et al., J. Phys.:Condens. Matter 29 465901 (2017);
         "P. Giannozzi et al., J. Chem. Phys. 152 154105 (2020);
          URL http://www.quantum-espresso.org", 
     in publications or presentations arising from this work. More details at
     http://www.quantum-espresso.org/quote

     Parallel version (MPI), running on     1 processors

     MPI processes distributed on     1 nodes
     22788 MiB available memory on the printing compute node when the environment starts
 
     Reading input from charged.in

     Current dimensions of program PWSCF are:
     Max number of different atomic species (ntypx) = 10
     Max number of k-points (npk) =  40000
     Max angular momentum in pseudopotentials (lmaxx) =  4
 
     Reading input from environ.in:
     * using full solvent mode
     * setting boundary derivatives method to SCCS default
     
     file C.pbe-rrkjus.UPF: wavefunction(s)  2S 2P renormalized
     file O.pbe-rrkjus.UPF: wavefunction(s)  2S renormalized

     gamma-point specific algorithms are used

     Subspace diagonalization in iterative solution of the eigenvalue problem:
     a serial algorithm will be used

 
     G-vector sticks info
     --------------------
     sticks:   dense  smooth     PW     G-vecs:    dense   smooth      PW
     Sum        2357    1099    269               366833   116965   14571
 
     Using Slab Decomposition
 


     bravais-lattice index     =            8
     lattice parameter (alat)  =      10.6881  a.u.
     unit-cell volume          =    4181.1215 (a.u.)^3
     number of atoms/cell      =           10
     number of atomic types    =            3
     number of electrons       =        89.00
     number of Kohn-Sham states=           80
     kinetic-energy cutoff     =      35.0000  Ry
     charge density cutoff     =     300.0000  Ry
     scf convergence threshold =      5.0E-06
     mixing beta               =       0.7000
     number of iterations used =            8  plain     mixing
     Exchange-correlation= PBE
                           (   1   4   3   4   0   0   0)

     ================================================================================
 
                                  Environ Setup Summary

     ================================================================================
 
     Please cite

          O. Andreussi, I. Dabo and N. Marzari, J. Chem. Phys. 136, 064102 (2012)

     in publications or presentations arising from this work.

     ================================================================================
 
     Parameters
     ==========

     compensation onset threshold      =               0.1000E+03
     static permittivity               =                   100.00

     Solvent Boundary
     ================

     solvent mode                      =                     full
     derivatives method                =                    chain
     numerical core for derivatives    =                      fft
     switching function adopted        =                     SCCS
     density limit for vacuum region   =               0.5000E-02
     density limit for bulk solvent    =               0.1000E-03

     Electrostatic Setup
     ===================

     electrostatic problem to solve    =              generalized
     numerical solver adopted          =                       cg
     type of auxiliary density adopted =                     none
     numerical core for poisson        =                      fft
     type of pbc corrections           =                parabolic
     numerical core for corrections    =                      1da

     ================================================================================
 

     celldm(1)=  10.688100  celldm(2)=   0.866025  celldm(3)=   3.954220
     celldm(4)=   0.000000  celldm(5)=   0.000000  celldm(6)=   0.000000

     crystal axes: (cart. coord. in units of alat)
               a(1) = (   1.000000   0.000000   0.000000 )  
               a(2) = (   0.000000   0.866025   0.000000 )  
               a(3) = (   0.000000   0.000000   3.954220 )  

     reciprocal axes: (cart. coord. in units 2 pi/alat)
               b(1) = (  1.000000  0.000000  0.000000 )  
               b(2) = (  0.000000  1.154701  0.000000 )  
               b(3) = (  0.000000  0.000000  0.252894 )  


     PseudoPot. # 1 for C  read from file:
     MD5 check sum: c9ac5a99bc85b198593446162950cd17
     Pseudo is Ultrasoft, Zval =  4.0
     Generated by new atomic code, or converted to UPF format
     Using radial grid of  627 points,  4 beta functions with: 
                l(1) =   0
                l(2) =   0
                l(3) =   1
                l(4) =   1
     Q(r) pseudized with 0 coefficients 


     PseudoPot. # 2 for O  read from file:
     MD5 check sum: fadcf19ee70a498d3030e2e79cf929a4
     Pseudo is Ultrasoft, Zval =  6.0
     Generated by new atomic code, or converted to UPF format
     Using radial grid of 1269 points,  4 beta functions with: 
                l(1) =   0
                l(2) =   0
                l(3) =   1
                l(4) =   1
     Q(r) pseudized with 0 coefficients 


     PseudoPot. # 3 for Pt read from file:
     MD5 check sum: 957548fe13c2a9232dd96292d902c87c
     Pseudo is Ultrasoft + core correction, Zval = 10.0
     Generated using "atomic" code by A. Dal Corso  v.5.0.2 svn rev. 9415
     Using radial grid of 1277 points,  6 beta functions with: 
                l(1) =   0
                l(2) =   0
                l(3) =   1
                l(4) =   1
                l(5) =   2
                l(6) =   2
     Q(r) pseudized with 0 coefficients 


     atomic species   valence    mass     pseudopotential
        C              4.00     1.00000     C ( 1.00)
        O              6.00     1.00000     O ( 1.00)
        Pt            10.00     1.00000     Pt( 1.00)

     No symmetry found



   Cartesian axes

     site n.     atom                  positions (alat units)
         1           C   tau(   1) = (   0.4991611   0.4347567   1.2070461  )
         2           O   tau(   2) = (   0.4991542   0.4322212   1.4109013  )
         3           Pt  tau(   3) = (   0.7542339   0.0091745   0.8413229  )
         4           Pt  tau(   4) = (   0.2441023   0.0091745   0.8413226  )
         5           Pt  tau(   5) = (   0.0000034   0.4416918   0.8391348  )
         6           Pt  tau(   6) = (   0.4991682   0.4417635   0.8776299  )
         7           Pt  tau(   7) = (   0.0000038   0.7300598   0.4308181  )
         8           Pt  tau(   8) = (   0.4991683   0.7202168   0.4447460  )
         9           Pt  tau(   9) = (   0.2524172   0.2949237   0.4386572  )
        10           Pt  tau(  10) = (   0.7459196   0.2949237   0.4386575  )

     number of k points=     1  Marzari-Vanderbilt smearing, width (Ry)=  0.0300
                       cart. coord. in units 2pi/alat
        k(    1) = (   0.0000000   0.0000000   0.0000000), wk =   2.0000000

     Dense  grid:   183417 G-vectors     FFT dimensions: (  60,  54, 240)

     Smooth grid:    58483 G-vectors     FFT dimensions: (  45,  36, 160)

     Estimated max dynamical RAM per process >     754.41 MB

     Initial potential from superposition of free atoms

     starting charge      89.9986, renormalised to      89.0000

     negative rho (up, down):  3.052E-03 0.000E+00
     Starting wfcs are   80 randomized atomic wfcs

     total cpu time spent up to now is        4.9 secs

     Self-consistent Calculation

     iteration #  1     ecut=    35.00 Ry     beta= 0.70
     Davidson diagonalization with overlap
     ethr =  1.00E-02,  avg # of iterations = 10.0

     negative rho (up, down):  2.867E-03 0.000E+00

     add environment contribution to local potential
     Polarization accuracy = 7.5E-06, # of iterations =  26

     total cpu time spent up to now is        9.8 secs

     total energy              =    -622.70870731 Ry
     estimated scf accuracy    <       1.83046796 Ry
     electrostatic embedding   =       0.03381190 Ry
     correction to one-el term =       0.00000000 Ry

     iteration #  2     ecut=    35.00 Ry     beta= 0.70
     Davidson diagonalization with overlap
     ethr =  2.06E-03,  avg # of iterations =  8.0

     negative rho (up, down):  2.088E-02 0.000E+00

     add environment contribution to local potential
     Polarization accuracy = 6.5E-06, # of iterations =  39

     total cpu time spent up to now is       15.6 secs

     total energy              =    -618.05953230 Ry
     estimated scf accuracy    <      48.31854472 Ry
     electrostatic embedding   =       0.01519578 Ry
     correction to one-el term =       9.04444887 Ry

     iteration #  3     ecut=    35.00 Ry     beta= 0.70
     Davidson diagonalization with overlap
     ethr =  2.06E-03,  avg # of iterations =  2.0

     negative rho (up, down):  7.230E-03 0.000E+00

     add environment contribution to local potential
     Polarization accuracy = 4.6E-06, # of iterations =  27

     total cpu time spent up to now is       21.1 secs

     total energy              =    -623.29412530 Ry
     estimated scf accuracy    <       2.82740192 Ry
     electrostatic embedding   =       0.20857633 Ry
     correction to one-el term =       9.09773823 Ry

     iteration #  4     ecut=    35.00 Ry     beta= 0.70
     Davidson diagonalization with overlap
     ethr =  2.06E-03,  avg # of iterations =  1.0

     negative rho (up, down):  1.017E-02 0.000E+00

     add environment contribution to local potential
     Polarization accuracy = 4.9E-06, # of iterations =  32

     total cpu time spent up to now is       25.6 secs

     total energy              =    -623.59425972 Ry
     estimated scf accuracy    <       1.87439164 Ry
     electrostatic embedding   =       0.21540094 Ry
     correction to one-el term =      10.35145148 Ry

     iteration #  5     ecut=    35.00 Ry     beta= 0.70
     Davidson diagonalization with overlap
     ethr =  2.06E-03,  avg # of iterations =  1.0

     negative rho (up, down):  1.011E-02 0.000E+00

     add environment contribution to local potential
     Polarization accuracy = 8.5E-06, # of iterations =  33

     total cpu time spent up to now is       30.5 secs

     total energy              =    -623.68721471 Ry
     estimated scf accuracy    <       0.37908838 Ry
     electrostatic embedding   =       0.21573001 Ry
     correction to one-el term =       9.85938494 Ry

     iteration #  6     ecut=    35.00 Ry     beta= 0.70
     Davidson diagonalization with overlap
     ethr =  4.26E-04,  avg # of iterations =  2.0

     negative rho (up, down):  6.962E-03 0.000E+00

     add environment contribution to local potential
     Polarization accuracy = 4.6E-06, # of iterations =  32

     total cpu time spent up to now is       36.0 secs

     total energy              =    -623.68439481 Ry
     estimated scf accuracy    <       0.24847394 Ry
     electrostatic embedding   =       0.21019727 Ry
     correction to one-el term =       9.20969529 Ry

     iteration #  7     ecut=    35.00 Ry     beta= 0.70
     Davidson diagonalization with overlap
     ethr =  2.79E-04,  avg # of iterations =  2.0

     negative rho (up, down):  4.888E-03 0.000E+00

     add environment contribution to local potential
     Polarization accuracy = 6.9E-06, # of iterations =  28

     total cpu time spent up to now is       40.1 secs

     total energy              =    -623.68802731 Ry
     estimated scf accuracy    <       0.05535114 Ry
     electrostatic embedding   =       0.20670684 Ry
     correction to one-el term =       8.70308774 Ry

     iteration #  8     ecut=    35.00 Ry     beta= 0.70
     Davidson diagonalization with overlap
     ethr =  6.22E-05,  avg # of iterations = 15.0

     negative rho (up, down):  4.053E-03 0.000E+00

     add environment contribution to local potential
     Polarization accuracy = 7.0E-06, # of iterations =  28

     total cpu time spent up to now is       45.9 secs

     total energy              =    -623.69279132 Ry
     estimated scf accuracy    <       0.04167669 Ry
     electrostatic embedding   =       0.20260204 Ry
     correction to one-el term =       8.21029177 Ry

     iteration #  9     ecut=    35.00 Ry     beta= 0.70
     Davidson diagonalization with overlap
     ethr =  4.68E-05,  avg # of iterations =  1.0

     negative rho (up, down):  3.807E-03 0.000E+00

     add environment contribution to local potential
     Polarization accuracy = 4.7E-06, # of iterations =  28

     total cpu time spent up to now is       50.6 secs

     total energy              =    -623.69481251 Ry
     estimated scf accuracy    <       0.03135422 Ry
     electrostatic embedding   =       0.20072766 Ry
     correction to one-el term =       8.07339795 Ry

     iteration # 10     ecut=    35.00 Ry     beta= 0.70
     Davidson diagonalization with overlap
     ethr =  3.52E-05,  avg # of iterations =  1.0

     negative rho (up, down):  3.571E-03 0.000E+00

     add environment contribution to local potential
     Polarization accuracy = 4.3E-06, # of iterations =  28

     total cpu time spent up to now is       55.6 secs

     total energy              =    -623.69716914 Ry
     estimated scf accuracy    <       0.00063002 Ry
     electrostatic embedding   =       0.19948171 Ry
     correction to one-el term =       7.93196899 Ry

     iteration # 11     ecut=    35.00 Ry     beta= 0.70
     Davidson diagonalization with overlap
     ethr =  7.08E-07,  avg # of iterations =  8.0

     negative rho (up, down):  3.568E-03 0.000E+00

     add environment contribution to local potential
     Polarization accuracy = 5.8E-06, # of iterations =  28

     total cpu time spent up to now is       59.9 secs

     total energy              =    -623.69722101 Ry
     estimated scf accuracy    <       0.00176108 Ry
     electrostatic embedding   =       0.19894026 Ry
     correction to one-el term =       7.93468786 Ry

     iteration # 12     ecut=    35.00 Ry     beta= 0.70
     Davidson diagonalization with overlap
     ethr =  7.08E-07,  avg # of iterations =  1.0

     negative rho (up, down):  3.574E-03 0.000E+00

     add environment contribution to local potential
     Polarization accuracy = 7.2E-06, # of iterations =  28

     total cpu time spent up to now is       64.6 secs

     total energy              =    -623.69724677 Ry
     estimated scf accuracy    <       0.00143472 Ry
     electrostatic embedding   =       0.19817215 Ry
     correction to one-el term =       7.86774924 Ry

     iteration # 13     ecut=    35.00 Ry     beta= 0.70
     Davidson diagonalization with overlap
     ethr =  7.08E-07,  avg # of iterations =  1.0

     negative rho (up, down):  3.566E-03 0.000E+00

     add environment contribution to local potential
     Polarization accuracy = 9.3E-06, # of iterations =  28

     total cpu time spent up to now is       69.9 secs

     total energy              =    -623.69733359 Ry
     estimated scf accuracy    <       0.00010210 Ry
     electrostatic embedding   =       0.19817388 Ry
     correction to one-el term =       7.87751247 Ry

     iteration # 14     ecut=    35.00 Ry     beta= 0.70
     Davidson diagonalization with overlap
     ethr =  1.15E-07,  avg # of iterations =  1.0

     negative rho (up, down):  3.565E-03 0.000E+00

     add environment contribution to local potential
     Polarization accuracy = 5.7E-06, # of iterations =  28

     total cpu time spent up to now is       73.7 secs

     total energy              =    -623.69733953 Ry
     estimated scf accuracy    <       0.00005385 Ry
     electrostatic embedding   =       0.19798914 Ry
     correction to one-el term =       7.86232190 Ry

     iteration # 15     ecut=    35.00 Ry     beta= 0.70
     Davidson diagonalization with overlap
     ethr =  6.05E-08,  avg # of iterations =  1.0

     negative rho (up, down):  3.565E-03 0.000E+00

     add environment contribution to local potential
     Polarization accuracy = 5.2E-06, # of iterations =  28

     total cpu time spent up to now is       78.6 secs

     total energy              =    -623.69734326 Ry
     estimated scf accuracy    <       0.00002001 Ry
     electrostatic embedding   =       0.19785103 Ry
     correction to one-el term =       7.85241465 Ry

     iteration # 16     ecut=    35.00 Ry     beta= 0.70
     Davidson diagonalization with overlap
     ethr =  2.25E-08,  avg # of iterations =  2.0

     negative rho (up, down):  3.564E-03 0.000E+00

     add environment contribution to local potential
     Polarization accuracy = 4.5E-06, # of iterations =  28

     total cpu time spent up to now is       83.9 secs

     total energy              =    -623.69734423 Ry
     estimated scf accuracy    <       0.00001625 Ry
     electrostatic embedding   =       0.19761686 Ry
     correction to one-el term =       7.83731586 Ry

     iteration # 17     ecut=    35.00 Ry     beta= 0.70
     Davidson diagonalization with overlap
     ethr =  1.83E-08,  avg # of iterations =  1.0

     negative rho (up, down):  3.564E-03 0.000E+00

     add environment contribution to local potential
     Polarization accuracy = 5.6E-06, # of iterations =  28

     total cpu time spent up to now is       88.5 secs

     total energy              =    -623.69734487 Ry
     estimated scf accuracy    <       0.00001693 Ry
     electrostatic embedding   =       0.19768215 Ry
     correction to one-el term =       7.84188165 Ry

     iteration # 18     ecut=    35.00 Ry     beta= 0.70
     Davidson diagonalization with overlap
     ethr =  1.83E-08,  avg # of iterations =  1.0

     negative rho (up, down):  3.564E-03 0.000E+00

     add environment contribution to local potential
     Polarization accuracy = 4.9E-06, # of iterations =  28

     total cpu time spent up to now is       92.4 secs

     total energy              =    -623.69734648 Ry
     estimated scf accuracy    <       0.00000918 Ry
     electrostatic embedding   =       0.19765879 Ry
     correction to one-el term =       7.84144648 Ry

     iteration # 19     ecut=    35.00 Ry     beta= 0.70
     Davidson diagonalization with overlap
     ethr =  1.03E-08,  avg # of iterations =  1.0

     negative rho (up, down):  3.564E-03 0.000E+00

     the potential shift due to the Gaussian-smeared nuclei is    -0.4600 ev

     total cpu time spent up to now is       95.4 secs

     End of self-consistent calculation

          k = 0.0000 0.0000 0.0000 (  7286 PWs)   bands (ev):

   -29.5092 -16.0290 -14.3764 -13.1692 -12.9154 -12.3631 -12.3581 -12.2033
   -12.0332 -11.1916 -11.0597 -10.9461 -10.7208 -10.6785 -10.6061 -10.4720
    -9.7907  -9.7470  -9.6949  -9.4934  -9.4444  -9.3985  -9.3600  -9.3148
    -9.3021  -9.1200  -9.1023  -9.0094  -8.8982  -8.6657  -8.5513  -7.8093
    -7.6791  -7.4146  -7.1679  -7.1365  -7.0686  -6.9042  -6.7377  -6.6198
    -6.4345  -6.4322  -6.2258  -6.1932  -6.1488  -5.9834  -5.8216  -4.7567
    -4.4420  -4.3677  -3.7813  -3.1051  -2.9586  -1.9901  -1.6709  -1.5889
    -0.2402  -0.0760   0.0202   0.3421   0.8198   1.1953   1.3819   1.4394
     2.2893   2.5060   2.6758   2.8563   2.9827   3.3099   4.1810   4.5541
     4.6392   4.7054   4.9479   5.2902   5.3826   5.4441   5.5627   5.6447

     the Fermi energy is    -6.0598 ev

!    total energy              =    -623.69734497 Ry
     estimated scf accuracy    <       0.00000195 Ry
     smearing contrib. (-TS)   =      -0.00114390 Ry
     internal energy E=F+TS    =    -623.69620107 Ry

     The total energy is F=E-TS. E is the sum of the following terms:
     one-electron contribution =   -3947.67138733 Ry
     hartree contribution      =    2005.51120007 Ry
     xc contribution           =    -262.77902452 Ry
     ewald contribution        =    1573.20467954 Ry
     electrostatic embedding   =       0.19763942 Ry
     correction to one-el term =       7.84069175 Ry

     WARNING: you are using the parabolic pbc correction;
              the potential shift above must be added to 
              band and Fermi energies.

     convergence has been achieved in  19 iterations

     negative rho (up, down):  3.564E-03 0.000E+00

     Forces acting on atoms (cartesian axes, Ry/au):

     atom    1 type  1   force =    -0.00001753   -0.00421582    0.06745495
     atom    2 type  2   force =    -0.00009353    0.00127147   -0.05526958
     atom    3 type  3   force =     0.00074877    0.01298996    0.03210021
     atom    4 type  3   force =     0.00021323    0.01318015    0.03258710
     atom    5 type  3   force =    -0.00169526    0.01103208   -0.00304308
     atom    6 type  3   force =     0.00073091    0.00825775    0.04831216
     atom    7 type  3   force =    -0.00139532   -0.01243744   -0.03707175
     atom    8 type  3   force =     0.00045753   -0.02078960   -0.01923646
     atom    9 type  3   force =     0.01927280   -0.00481475   -0.03309769
     atom   10 type  3   force =    -0.01822158   -0.00447380   -0.03273587

     Total force =     0.133580     Total SCF correction =     0.006018

 
     init_run     :      4.58s CPU      4.77s WALL (       1 calls)
     electrons    :     84.95s CPU     90.48s WALL (       1 calls)
     forces       :      3.42s CPU      3.64s WALL (       1 calls)

     Called by init_run:
     wfcinit      :      0.29s CPU      0.30s WALL (       1 calls)
     potinit      :      0.98s CPU      0.99s WALL (       1 calls)
     hinit0       :      2.72s CPU      2.74s WALL (       1 calls)

     Called by electrons:
     c_bands      :     16.28s CPU     16.74s WALL (      19 calls)
     sum_band     :     14.27s CPU     16.29s WALL (      19 calls)
     v_of_rho     :      5.74s CPU      6.41s WALL (      20 calls)
     newd         :      9.51s CPU     11.52s WALL (      20 calls)
     mix_rho      :      0.60s CPU      0.60s WALL (      19 calls)

     Called by c_bands:
     init_us_2    :      0.15s CPU      0.16s WALL (      39 calls)
     init_us_2:cp :      0.15s CPU      0.16s WALL (      39 calls)
     regterg      :     15.05s CPU     15.50s WALL (      19 calls)

     Called by *egterg:
     rdiaghg      :      0.38s CPU      0.38s WALL (      79 calls)
     h_psi        :     12.30s CPU     12.70s WALL (      80 calls)
     s_psi        :      0.55s CPU      0.55s WALL (      80 calls)
     g_psi        :      0.04s CPU      0.04s WALL (      60 calls)

     Called by h_psi:
     h_psi:calbec :      0.55s CPU      0.56s WALL (      80 calls)
     vloc_psi     :     11.15s CPU     11.53s WALL (      80 calls)
     add_vuspsi   :      0.56s CPU      0.56s WALL (      80 calls)

     General routines
     calbec       :      0.81s CPU      0.82s WALL (     103 calls)
     fft          :      1.84s CPU      1.91s WALL (     227 calls)
     ffts         :      0.10s CPU      0.10s WALL (      39 calls)
     fftw         :     11.00s CPU     11.33s WALL (    4278 calls)
     interpolate  :      0.26s CPU      0.26s WALL (      20 calls)
 
     Parallel routines
 
     Environ routines
 
     PWSCF        :   1m33.08s CPU   1m39.05s WALL

 
   This run was terminated on:  20:50: 3  22Apr2022            

=------------------------------------------------------------------------------=
   JOB DONE.
=------------------------------------------------------------------------------=

%%%% CELL %%%%%%%%%%%%%%%%%%%%%%%%%%%%%%%%%%%%%%%%%%%%%%%%%%%%%%%%%%%%%%%%%%%%%%

 cell label                 = system         

 cell volume                =    4181.121453

%%%% IONS %%%%%%%%%%%%%%%%%%%%%%%%%%%%%%%%%%%%%%%%%%%%%%%%%%%%%%%%%%%%%%%%%%%%%%

 total charge               =    -90.0000000
 center of charge           =      4.0248944     3.9428091     7.0115639
 dipole                     =      0.0000000     0.0000000     0.0000000
 quadrupole (pc)            =   -731.9089570  -614.9962595  -919.0541247
 quadrupole (gauss)         =   -743.1589570  -626.2462595  -930.3041247

   i | type | coordinates
 -----------------------------------------------------------------------
   1 |    1 |                      5.3350841     4.6467234    12.9010299
   2 |    2 |                      5.3350096     4.6196233    15.0798543
   3 |    3 |                      8.0613271     0.0980580     8.9921429
   4 |    3 |                      2.6089894     0.0980583     8.9921406
   5 |    3 |                      0.0000366     4.7208463     8.9687569
   6 |    3 |                      5.3351596     4.7216127     9.3801964
   7 |    3 |                      0.0000411     7.8029520     4.6046265
   8 |    3 |                      5.3351612     7.6977491     4.7534894
   9 |    3 |                      2.6978606     3.1521739     4.6884123
  10 |    3 |                      7.9724637     3.1521745     4.6884152

%%%% SYSTEM %%%%%%%%%%%%%%%%%%%%%%%%%%%%%%%%%%%%%%%%%%%%%%%%%%%%%%%%%%%%%%%%%%%%

 system is built from all present ionic types

 system defined dimension   =              0
 system defined axis        =              3

 system center              =      4.0248944     3.9428091     7.0115639
 system width               =      8.2019381

%%%% IONS %%%%%%%%%%%%%%%%%%%%%%%%%%%%%%%%%%%%%%%%%%%%%%%%%%%%%%%%%%%%%%%%%%%%%%

 total charge               =    -90.0000000
 center of charge           =      4.0248944     3.9428091     7.0115639
 dipole                     =      0.0000000     0.0000000     0.0000000
 quadrupole (pc)            =   -731.9089570  -614.9962595  -919.0541247
 quadrupole (gauss)         =   -743.1589570  -626.2462595  -930.3041247

   i | type | coordinates
 -----------------------------------------------------------------------
   1 |    1 |                      5.3350841     4.6467234    12.9010299
   2 |    2 |                      5.3350096     4.6196233    15.0798543
   3 |    3 |                      8.0613271     0.0980580     8.9921429
   4 |    3 |                      2.6089894     0.0980583     8.9921406
   5 |    3 |                      0.0000366     4.7208463     8.9687569
   6 |    3 |                      5.3351596     4.7216127     9.3801964
   7 |    3 |                      0.0000411     7.8029520     4.6046265
   8 |    3 |                      5.3351612     7.6977491     4.7534894
   9 |    3 |                      2.6978606     3.1521739     4.6884123
  10 |    3 |                      7.9724637     3.1521745     4.6884152

%%%% SYSTEM %%%%%%%%%%%%%%%%%%%%%%%%%%%%%%%%%%%%%%%%%%%%%%%%%%%%%%%%%%%%%%%%%%%%

 system is built from all present ionic types

 system defined dimension   =              0
 system defined axis        =              3

 system center              =      4.0248944     3.9428091     7.0115639
 system width               =      8.2019381

%%%% CHARGES %%%%%%%%%%%%%%%%%%%%%%%%%%%%%%%%%%%%%%%%%%%%%%%%%%%%%%%%%%%%%%%%%%%

 total number of charges    =             10

 total charge               =    -90.0000000

%%%% CHARGES %%%%%%%%%%%%%%%%%%%%%%%%%%%%%%%%%%%%%%%%%%%%%%%%%%%%%%%%%%%%%%%%%%%

 total number of charges    =             10

 total charge               =    -90.0000000

%%%% CELL %%%%%%%%%%%%%%%%%%%%%%%%%%%%%%%%%%%%%%%%%%%%%%%%%%%%%%%%%%%%%%%%%%%%%%

 cell label                 = system         

 cell volume                =    4181.121453

%%%% ELECTRONS %%%%%%%%%%%%%%%%%%%%%%%%%%%%%%%%%%%%%%%%%%%%%%%%%%%%%%%%%%%%%%%%%

 number of electrons        =             89

 total electronic charge    =     89.0000000

%%%% ELECTRONS %%%%%%%%%%%%%%%%%%%%%%%%%%%%%%%%%%%%%%%%%%%%%%%%%%%%%%%%%%%%%%%%%

 number of electrons        =             89

 total electronic charge    =     89.0000000

%%%% CHARGES %%%%%%%%%%%%%%%%%%%%%%%%%%%%%%%%%%%%%%%%%%%%%%%%%%%%%%%%%%%%%%%%%%%

 total number of charges    =             99

 total charge               =     -1.0000000

%%%% CHARGES %%%%%%%%%%%%%%%%%%%%%%%%%%%%%%%%%%%%%%%%%%%%%%%%%%%%%%%%%%%%%%%%%%%

 total number of charges    =             99

 total charge               =     -1.0000000

%%%% BOUNDARY %%%%%%%%%%%%%%%%%%%%%%%%%%%%%%%%%%%%%%%%%%%%%%%%%%%%%%%%%%%%%%%%%%

 boundary label             = solvent             
 boundary mode              = full                

 using the optimal SCCS function:
 rhomax                     =      0.0050000
 rhomin                     =      0.0001000

 volume of the QM region    =   1488.5391184

 surface of the QM region   =    256.4535015

%%%% DENSITY %%%%%%%%%%%%%%%%%%%%%%%%%%%%%%%%%%%%%%%%%%%%%%%%%%%%%%%%%%%%%%%%%%%

 density label              = dvtot                                             

 integral of density        =    0.000000000    

%%%% DENSITY %%%%%%%%%%%%%%%%%%%%%%%%%%%%%%%%%%%%%%%%%%%%%%%%%%%%%%%%%%%%%%%%%%%

 density label              = vreference                                        

 integral of density        =    0.000000000    

%%%% DENSITY %%%%%%%%%%%%%%%%%%%%%%%%%%%%%%%%%%%%%%%%%%%%%%%%%%%%%%%%%%%%%%%%%%%

 density label              = velectrostatic                                    

 integral of density        =    0.000000000    

%%%% CHARGES %%%%%%%%%%%%%%%%%%%%%%%%%%%%%%%%%%%%%%%%%%%%%%%%%%%%%%%%%%%%%%%%%%%

 total number of charges    =             99

 total charge               =     -1.0000000

%%%% DENSITY %%%%%%%%%%%%%%%%%%%%%%%%%%%%%%%%%%%%%%%%%%%%%%%%%%%%%%%%%%%%%%%%%%%

 density label              = vsoftcavity                                       

 integral of density        =    0.000000000    

%%%% ELECTRONS %%%%%%%%%%%%%%%%%%%%%%%%%%%%%%%%%%%%%%%%%%%%%%%%%%%%%%%%%%%%%%%%%

 number of electrons        =             89

 total electronic charge    =     89.0000000

%%%% ELECTRONS %%%%%%%%%%%%%%%%%%%%%%%%%%%%%%%%%%%%%%%%%%%%%%%%%%%%%%%%%%%%%%%%%

 number of electrons        =             89

 total electronic charge    =     89.0000000

%%%% CHARGES %%%%%%%%%%%%%%%%%%%%%%%%%%%%%%%%%%%%%%%%%%%%%%%%%%%%%%%%%%%%%%%%%%%

 total number of charges    =             99

 total charge               =     -1.0000000

%%%% CHARGES %%%%%%%%%%%%%%%%%%%%%%%%%%%%%%%%%%%%%%%%%%%%%%%%%%%%%%%%%%%%%%%%%%%

 total number of charges    =             99

 total charge               =     -1.0000000

%%%% BOUNDARY %%%%%%%%%%%%%%%%%%%%%%%%%%%%%%%%%%%%%%%%%%%%%%%%%%%%%%%%%%%%%%%%%%

 boundary label             = solvent             
 boundary mode              = full                

 using the optimal SCCS function:
 rhomax                     =      0.0050000
 rhomin                     =      0.0001000

 volume of the QM region    =   1395.0687454

 surface of the QM region   =    259.4368958

%%%% DENSITY %%%%%%%%%%%%%%%%%%%%%%%%%%%%%%%%%%%%%%%%%%%%%%%%%%%%%%%%%%%%%%%%%%%

 density label              = vreference                                        

 integral of density        =  -0.2335918675E-11

%%%% COMPUTE ELECTROSTATIC POTENTIAL %%%%%%%%%%%%%%%%%%%%%%%%%%%%%%%%%%%%%%%%%%%

   i |      alpha     |       pAp      |      rzold     |    delta_qm    |    delta_en    |       tol
 ---------------------------------------------------------------------------------------------------------
   1 |   0.982933E+00 |   0.129488E+04 |   0.127278E+04 |   0.267367E+00 |   0.555867E+05 |   0.100000E-04
   2 |   0.305395E-01 |   0.223031E+05 |   0.681125E+03 |   0.106432E+00 |   0.880854E+04 |   0.100000E-04
   3 |  -0.524874E+00 |  -0.176349E+01 |   0.925611E+00 |   0.438414E-01 |   0.149460E+04 |   0.100000E-04
   4 |   0.502362E-01 |   0.483853E+02 |   0.243069E+01 |   0.612484E-01 |   0.291706E+04 |   0.100000E-04
   5 |  -0.861125E+00 |   0.901367E+00 |  -0.776190E+00 |   0.159669E-01 |   0.198242E+03 |   0.100000E-04
   6 |   0.284973E+00 |   0.126154E+01 |   0.359504E+00 |   0.558440E-02 |   0.242499E+02 |   0.100000E-04
   7 |   0.462186E+00 |   0.478145E-01 |   0.220992E-01 |   0.296353E-02 |   0.682927E+01 |   0.100000E-04
   8 |   0.544639E+00 |   0.659132E-02 |   0.358989E-02 |   0.367846E-02 |   0.105217E+02 |   0.100000E-04
   9 |   0.932607E+00 |   0.192338E-02 |   0.179376E-02 |   0.429297E-02 |   0.143308E+02 |   0.100000E-04
  10 |   0.155440E+01 |   0.230868E-02 |   0.358860E-02 |   0.442356E-02 |   0.152160E+02 |   0.100000E-04
  11 |   0.104539E+01 |   0.141035E-01 |   0.147437E-01 |   0.456944E-02 |   0.162361E+02 |   0.100000E-04
  12 |   0.472932E+00 |   0.426355E-01 |   0.201637E-01 |   0.378507E-02 |   0.111405E+02 |   0.100000E-04
  13 |   0.320026E+00 |   0.851788E-02 |   0.272595E-02 |   0.339407E-02 |   0.895774E+01 |   0.100000E-04
  14 |   0.600264E-01 |   0.209078E+00 |   0.125502E-01 |   0.218612E-02 |   0.371625E+01 |   0.100000E-04
  15 |   0.426488E+00 |   0.250236E-02 |   0.106723E-02 |   0.144032E-02 |   0.161314E+01 |   0.100000E-04
  16 |   0.431019E+00 |   0.103909E-02 |   0.447869E-03 |   0.108884E-02 |   0.921895E+00 |   0.100000E-04
  17 |   0.719017E+00 |   0.409828E-03 |   0.294673E-03 |   0.542240E-03 |   0.228633E+00 |   0.100000E-04
  18 |   0.554900E+00 |   0.235945E-03 |   0.130926E-03 |   0.215580E-03 |   0.361386E-01 |   0.100000E-04
  19 |   0.489141E+00 |   0.354504E-04 |   0.173403E-04 |   0.118614E-03 |   0.109402E-01 |   0.100000E-04
  20 |   0.509642E+00 |   0.428809E-05 |   0.218539E-05 |   0.678180E-04 |   0.357640E-02 |   0.100000E-04
  21 |   0.769078E+00 |   0.468494E-06 |   0.360308E-06 |   0.285773E-04 |   0.635035E-03 |   0.100000E-04
  22 |   0.558790E+00 |   0.267946E-06 |   0.149725E-06 |   0.159687E-04 |   0.198287E-03 |   0.100000E-04
  23 |   0.533324E+00 |   0.974804E-07 |   0.519886E-07 |   0.770123E-05 |   0.461187E-04 |   0.100000E-04
  24 |   0.652726E-01 |   0.347251E-06 |   0.226660E-07 |   0.775370E-05 |   0.467492E-04 |   0.100000E-04
  25 |   0.227786E+00 |   0.989431E-07 |   0.225378E-07 |   0.409827E-05 |   0.130604E-04 |   0.100000E-04
  26 |   0.272158E+00 |   0.152020E-07 |   0.413733E-08 |   0.311561E-05 |   0.754817E-05 |   0.100000E-04

 Charges are converged, EXIT

%%%% DENSITY %%%%%%%%%%%%%%%%%%%%%%%%%%%%%%%%%%%%%%%%%%%%%%%%%%%%%%%%%%%%%%%%%%%

 density label              = velectrostatic                                    

 integral of density        =   -1333.401531    

%%%% CHARGES %%%%%%%%%%%%%%%%%%%%%%%%%%%%%%%%%%%%%%%%%%%%%%%%%%%%%%%%%%%%%%%%%%%

 total number of charges    =             99

 total charge               =     -1.0000000

%%%% DENSITY %%%%%%%%%%%%%%%%%%%%%%%%%%%%%%%%%%%%%%%%%%%%%%%%%%%%%%%%%%%%%%%%%%%

 density label              = vsoftcavity                                       

 integral of density        =    79.44404404    

%%%% DENSITY %%%%%%%%%%%%%%%%%%%%%%%%%%%%%%%%%%%%%%%%%%%%%%%%%%%%%%%%%%%%%%%%%%%

 density label              = dvtot                                             

 integral of density        =   -1253.957487    

%%%% ELECTRONS %%%%%%%%%%%%%%%%%%%%%%%%%%%%%%%%%%%%%%%%%%%%%%%%%%%%%%%%%%%%%%%%%

 number of electrons        =             89

 total electronic charge    =     89.0000000

%%%% ELECTRONS %%%%%%%%%%%%%%%%%%%%%%%%%%%%%%%%%%%%%%%%%%%%%%%%%%%%%%%%%%%%%%%%%

 number of electrons        =             89

 total electronic charge    =     89.0000000

%%%% CHARGES %%%%%%%%%%%%%%%%%%%%%%%%%%%%%%%%%%%%%%%%%%%%%%%%%%%%%%%%%%%%%%%%%%%

 total number of charges    =             99

 total charge               =     -1.0000000

%%%% CHARGES %%%%%%%%%%%%%%%%%%%%%%%%%%%%%%%%%%%%%%%%%%%%%%%%%%%%%%%%%%%%%%%%%%%

 total number of charges    =             99

 total charge               =     -1.0000000

%%%% BOUNDARY %%%%%%%%%%%%%%%%%%%%%%%%%%%%%%%%%%%%%%%%%%%%%%%%%%%%%%%%%%%%%%%%%%

 boundary label             = solvent             
 boundary mode              = full                

 using the optimal SCCS function:
 rhomax                     =      0.0050000
 rhomin                     =      0.0001000

 volume of the QM region    =   1402.5377378

 surface of the QM region   =    294.4627741

%%%% DENSITY %%%%%%%%%%%%%%%%%%%%%%%%%%%%%%%%%%%%%%%%%%%%%%%%%%%%%%%%%%%%%%%%%%%

 density label              = vreference                                        

 integral of density        =   0.3808161535E-12

%%%% COMPUTE ELECTROSTATIC POTENTIAL %%%%%%%%%%%%%%%%%%%%%%%%%%%%%%%%%%%%%%%%%%%

 Warning: Bad guess with residual norm =   0.277289E+05, reset to no guess

   i |      alpha     |       pAp      |      rzold     |    delta_qm    |    delta_en    |       tol
 ---------------------------------------------------------------------------------------------------------
   1 |   0.998326E+00 |   0.127598E+04 |   0.127384E+04 |   0.188522E+00 |   0.276364E+05 |   0.100000E-04
   2 |   0.240235E-01 |   0.146104E+04 |   0.350991E+02 |   0.245233E+00 |   0.467642E+05 |   0.100000E-04
   3 |   0.221952E-01 |   0.554509E+02 |   0.123075E+01 |   0.260226E+00 |   0.526571E+05 |   0.100000E-04
   4 |  -0.119149E+01 |   0.856619E+00 |  -0.102065E+01 |   0.304521E-01 |   0.721090E+03 |   0.100000E-04
   5 |   0.607115E+00 |   0.320876E+00 |   0.194808E+00 |   0.116880E+00 |   0.106227E+05 |   0.100000E-04
   6 |  -0.643723E+00 |  -0.371605E+00 |   0.239211E+00 |   0.567222E-01 |   0.250185E+04 |   0.100000E-04
   7 |   0.239313E+00 |   0.717091E+00 |   0.171609E+00 |   0.808582E-02 |   0.508399E+02 |   0.100000E-04
   8 |   0.310475E+00 |   0.493073E-01 |   0.153087E-01 |   0.467601E-02 |   0.170023E+02 |   0.100000E-04
   9 |   0.403880E+00 |   0.393958E-02 |   0.159112E-02 |   0.296331E-02 |   0.682826E+01 |   0.100000E-04
  10 |   0.402449E+00 |   0.113643E-02 |   0.457354E-03 |   0.210206E-02 |   0.343595E+01 |   0.100000E-04
  11 |   0.815103E+00 |   0.235875E-03 |   0.192262E-03 |   0.135726E-02 |   0.143246E+01 |   0.100000E-04
  12 |   0.310381E+00 |   0.826058E-03 |   0.256392E-03 |   0.135177E-02 |   0.142090E+01 |   0.100000E-04
  13 |   0.538974E-01 |   0.344088E-01 |   0.185455E-02 |   0.133638E-02 |   0.138873E+01 |   0.100000E-04
  14 |   0.432168E+00 |   0.587250E-03 |   0.253791E-03 |   0.112189E-02 |   0.978721E+00 |   0.100000E-04
  15 |   0.416140E+00 |   0.151292E-03 |   0.629586E-04 |   0.757813E-03 |   0.446560E+00 |   0.100000E-04
  16 |   0.425355E+00 |   0.738779E-04 |   0.314243E-04 |   0.451192E-03 |   0.158299E+00 |   0.100000E-04
  17 |   0.635921E+00 |   0.188786E-04 |   0.120053E-04 |   0.421674E-03 |   0.138265E+00 |   0.100000E-04
  18 |   0.109957E+01 |   0.172120E-04 |   0.189259E-04 |   0.773071E-03 |   0.464724E+00 |   0.100000E-04
  19 |   0.125071E+01 |   0.174903E-04 |   0.218753E-04 |   0.993279E-03 |   0.767182E+00 |   0.100000E-04
  20 |   0.108557E+01 |   0.487091E-04 |   0.528774E-04 |   0.164875E-02 |   0.211380E+01 |   0.100000E-04
  21 |  -0.366659E+02 |  -0.351966E-05 |   0.129052E-03 |   0.565504E-01 |   0.248673E+04 |   0.100000E-04
  22 |   0.171740E-01 |   0.151380E+02 |   0.259979E+00 |   0.173466E-02 |   0.233984E+01 |   0.100000E-04
  23 |   0.255681E-01 |   0.301061E-01 |   0.769755E-03 |   0.155700E-02 |   0.188511E+01 |   0.100000E-04
  24 |   0.261596E+00 |   0.374290E-03 |   0.979125E-04 |   0.139858E-02 |   0.152101E+01 |   0.100000E-04
  25 |  -0.295197E-01 |   0.363688E-03 |  -0.107359E-04 |   0.133603E-02 |   0.138800E+01 |   0.100000E-04
  26 |   0.146461E+01 |   0.793088E-05 |   0.116156E-04 |   0.639218E-03 |   0.317727E+00 |   0.100000E-04
  27 |   0.532978E+00 |   0.457067E-04 |   0.243606E-04 |   0.478273E-03 |   0.177872E+00 |   0.100000E-04
  28 |   0.514814E+00 |   0.256502E-04 |   0.132051E-04 |   0.316066E-03 |   0.776805E-01 |   0.100000E-04
  29 |   0.543690E+00 |   0.132380E-04 |   0.719739E-05 |   0.173276E-03 |   0.233471E-01 |   0.100000E-04
  30 |   0.377671E+00 |   0.763894E-05 |   0.288500E-05 |   0.133865E-03 |   0.139344E-01 |   0.100000E-04
  31 |   0.806851E+00 |   0.111608E-05 |   0.900512E-06 |   0.953000E-04 |   0.706223E-02 |   0.100000E-04
  32 |   0.850170E+00 |   0.448234E-06 |   0.381075E-06 |   0.569920E-04 |   0.252571E-02 |   0.100000E-04
  33 |   0.253845E+00 |   0.821724E-06 |   0.208591E-06 |   0.529595E-04 |   0.218094E-02 |   0.100000E-04
  34 |   0.591277E-01 |   0.226269E-04 |   0.133788E-05 |   0.285006E-04 |   0.631630E-03 |   0.100000E-04
  35 |   0.668017E+00 |   0.787469E-07 |   0.526042E-07 |   0.222498E-04 |   0.384955E-03 |   0.100000E-04
  36 |   0.896022E+00 |   0.196455E-07 |   0.176028E-07 |   0.112209E-04 |   0.979064E-04 |   0.100000E-04
  37 |   0.706730E+00 |   0.100482E-07 |   0.710134E-08 |   0.592565E-05 |   0.273041E-04 |   0.100000E-04
  38 |   0.577850E+00 |   0.422599E-08 |   0.244199E-08 |   0.412216E-05 |   0.132131E-04 |   0.100000E-04
  39 |   0.601260E+00 |   0.116127E-08 |   0.698222E-09 |   0.288290E-05 |   0.646270E-05 |   0.100000E-04

 Charges are converged, EXIT

%%%% DENSITY %%%%%%%%%%%%%%%%%%%%%%%%%%%%%%%%%%%%%%%%%%%%%%%%%%%%%%%%%%%%%%%%%%%

 density label              = velectrostatic                                    

 integral of density        =   -1428.785680    

%%%% CHARGES %%%%%%%%%%%%%%%%%%%%%%%%%%%%%%%%%%%%%%%%%%%%%%%%%%%%%%%%%%%%%%%%%%%

 total number of charges    =             99

 total charge               =     -1.0000000

%%%% DENSITY %%%%%%%%%%%%%%%%%%%%%%%%%%%%%%%%%%%%%%%%%%%%%%%%%%%%%%%%%%%%%%%%%%%

 density label              = vsoftcavity                                       

 integral of density        =    42.31098582    

%%%% DENSITY %%%%%%%%%%%%%%%%%%%%%%%%%%%%%%%%%%%%%%%%%%%%%%%%%%%%%%%%%%%%%%%%%%%

 density label              = dvtot                                             

 integral of density        =   -1386.474694    

%%%% ELECTRONS %%%%%%%%%%%%%%%%%%%%%%%%%%%%%%%%%%%%%%%%%%%%%%%%%%%%%%%%%%%%%%%%%

 number of electrons        =             89

 total electronic charge    =     89.0000000

%%%% ELECTRONS %%%%%%%%%%%%%%%%%%%%%%%%%%%%%%%%%%%%%%%%%%%%%%%%%%%%%%%%%%%%%%%%%

 number of electrons        =             89

 total electronic charge    =     89.0000000

%%%% CHARGES %%%%%%%%%%%%%%%%%%%%%%%%%%%%%%%%%%%%%%%%%%%%%%%%%%%%%%%%%%%%%%%%%%%

 total number of charges    =             99

 total charge               =     -1.0000000

%%%% CHARGES %%%%%%%%%%%%%%%%%%%%%%%%%%%%%%%%%%%%%%%%%%%%%%%%%%%%%%%%%%%%%%%%%%%

 total number of charges    =             99

 total charge               =     -1.0000000

%%%% BOUNDARY %%%%%%%%%%%%%%%%%%%%%%%%%%%%%%%%%%%%%%%%%%%%%%%%%%%%%%%%%%%%%%%%%%

 boundary label             = solvent             
 boundary mode              = full                

 using the optimal SCCS function:
 rhomax                     =      0.0050000
 rhomin                     =      0.0001000

 volume of the QM region    =   1401.0466836

 surface of the QM region   =    265.1576602

%%%% DENSITY %%%%%%%%%%%%%%%%%%%%%%%%%%%%%%%%%%%%%%%%%%%%%%%%%%%%%%%%%%%%%%%%%%%

 density label              = vreference                                        

 integral of density        =  -0.3077826160E-12

%%%% COMPUTE ELECTROSTATIC POTENTIAL %%%%%%%%%%%%%%%%%%%%%%%%%%%%%%%%%%%%%%%%%%%

 Warning: Bad guess with residual norm =   0.117603E+05, reset to no guess

   i |      alpha     |       pAp      |      rzold     |    delta_qm    |    delta_en    |       tol
 ---------------------------------------------------------------------------------------------------------
   1 |   0.997432E+00 |   0.127652E+04 |   0.127324E+04 |   0.122666E+00 |   0.117005E+05 |   0.100000E-04
   2 |   0.297847E-01 |   0.285791E+04 |   0.851219E+02 |   0.125457E+00 |   0.122389E+05 |   0.100000E-04
   3 |   0.137976E+00 |   0.214362E+02 |   0.295768E+01 |   0.148848E+00 |   0.172284E+05 |   0.100000E-04
   4 |  -0.192078E+00 |  -0.399947E+01 |   0.768210E+00 |   0.940771E-01 |   0.688214E+04 |   0.100000E-04
   5 |  -0.777468E+00 |   0.572845E+00 |  -0.445368E+00 |   0.213946E-01 |   0.355929E+03 |   0.100000E-04
   6 |   0.326819E+00 |   0.623143E+00 |   0.203655E+00 |   0.740672E-02 |   0.426587E+02 |   0.100000E-04
   7 |   0.444608E+00 |   0.396725E-01 |   0.176387E-01 |   0.161641E-02 |   0.203171E+01 |   0.100000E-04
   8 |   0.467696E+00 |   0.350944E-02 |   0.164135E-02 |   0.138387E-02 |   0.148918E+01 |   0.100000E-04
   9 |   0.396951E+00 |   0.699553E-03 |   0.277688E-03 |   0.132218E-02 |   0.135936E+01 |   0.100000E-04
  10 |   0.705144E+00 |   0.189429E-03 |   0.133575E-03 |   0.101318E-02 |   0.798228E+00 |   0.100000E-04
  11 |   0.101328E+01 |   0.182983E-03 |   0.185413E-03 |   0.878081E-03 |   0.599551E+00 |   0.100000E-04
  12 |   0.583944E+00 |   0.379349E-03 |   0.221519E-03 |   0.122545E-02 |   0.116775E+01 |   0.100000E-04
  13 |   0.559888E-01 |   0.573096E-02 |   0.320870E-03 |   0.114671E-02 |   0.102251E+01 |   0.100000E-04
  14 |   0.420351E+00 |   0.628562E-03 |   0.264217E-03 |   0.123754E-02 |   0.119089E+01 |   0.100000E-04
  15 |   0.712526E+00 |   0.250323E-03 |   0.178361E-03 |   0.126197E-02 |   0.123839E+01 |   0.100000E-04
  16 |   0.866335E+00 |   0.335332E-03 |   0.290510E-03 |   0.133427E-02 |   0.138434E+01 |   0.100000E-04
  17 |   0.774981E+00 |   0.493632E-03 |   0.382555E-03 |   0.737789E-03 |   0.423273E+00 |   0.100000E-04
  18 |   0.490108E+00 |   0.423948E-03 |   0.207780E-03 |   0.312738E-03 |   0.760533E-01 |   0.100000E-04
  19 |   0.461886E+00 |   0.546449E-04 |   0.252397E-04 |   0.194013E-03 |   0.292696E-01 |   0.100000E-04
  20 |   0.476562E+00 |   0.841176E-05 |   0.400873E-05 |   0.102426E-03 |   0.815783E-02 |   0.100000E-04
  21 |   0.676156E+00 |   0.128080E-05 |   0.866021E-06 |   0.442053E-04 |   0.151951E-02 |   0.100000E-04
  22 |   0.485460E+00 |   0.721199E-06 |   0.350113E-06 |   0.264099E-04 |   0.542362E-03 |   0.100000E-04
  23 |   0.479540E+00 |   0.210660E-06 |   0.101020E-06 |   0.165763E-04 |   0.213665E-03 |   0.100000E-04
  24 |   0.372191E-01 |   0.842892E-05 |   0.313717E-06 |   0.953973E-05 |   0.707666E-04 |   0.100000E-04
  25 |   0.396223E+00 |   0.464255E-07 |   0.183949E-07 |   0.542128E-05 |   0.228539E-04 |   0.100000E-04
  26 |   0.197179E+00 |   0.407659E-07 |   0.803820E-08 |   0.454797E-05 |   0.160839E-04 |   0.100000E-04
  27 |   0.552742E+00 |   0.327155E-08 |   0.180832E-08 |   0.243093E-05 |   0.459515E-05 |   0.100000E-04

 Charges are converged, EXIT

%%%% DENSITY %%%%%%%%%%%%%%%%%%%%%%%%%%%%%%%%%%%%%%%%%%%%%%%%%%%%%%%%%%%%%%%%%%%

 density label              = velectrostatic                                    

 integral of density        =   -1487.484036    

%%%% CHARGES %%%%%%%%%%%%%%%%%%%%%%%%%%%%%%%%%%%%%%%%%%%%%%%%%%%%%%%%%%%%%%%%%%%

 total number of charges    =             99

 total charge               =     -1.0000000

%%%% DENSITY %%%%%%%%%%%%%%%%%%%%%%%%%%%%%%%%%%%%%%%%%%%%%%%%%%%%%%%%%%%%%%%%%%%

 density label              = vsoftcavity                                       

 integral of density        =    41.26233127    

%%%% DENSITY %%%%%%%%%%%%%%%%%%%%%%%%%%%%%%%%%%%%%%%%%%%%%%%%%%%%%%%%%%%%%%%%%%%

 density label              = dvtot                                             

 integral of density        =   -1446.221704    

%%%% ELECTRONS %%%%%%%%%%%%%%%%%%%%%%%%%%%%%%%%%%%%%%%%%%%%%%%%%%%%%%%%%%%%%%%%%

 number of electrons        =             89

 total electronic charge    =     89.0000000

%%%% ELECTRONS %%%%%%%%%%%%%%%%%%%%%%%%%%%%%%%%%%%%%%%%%%%%%%%%%%%%%%%%%%%%%%%%%

 number of electrons        =             89

 total electronic charge    =     89.0000000

%%%% CHARGES %%%%%%%%%%%%%%%%%%%%%%%%%%%%%%%%%%%%%%%%%%%%%%%%%%%%%%%%%%%%%%%%%%%

 total number of charges    =             99

 total charge               =     -1.0000000

%%%% CHARGES %%%%%%%%%%%%%%%%%%%%%%%%%%%%%%%%%%%%%%%%%%%%%%%%%%%%%%%%%%%%%%%%%%%

 total number of charges    =             99

 total charge               =     -1.0000000

%%%% BOUNDARY %%%%%%%%%%%%%%%%%%%%%%%%%%%%%%%%%%%%%%%%%%%%%%%%%%%%%%%%%%%%%%%%%%

 boundary label             = solvent             
 boundary mode              = full                

 using the optimal SCCS function:
 rhomax                     =      0.0050000
 rhomin                     =      0.0001000

 volume of the QM region    =   1393.8827766

 surface of the QM region   =    271.5137869

%%%% DENSITY %%%%%%%%%%%%%%%%%%%%%%%%%%%%%%%%%%%%%%%%%%%%%%%%%%%%%%%%%%%%%%%%%%%

 density label              = vreference                                        

 integral of density        =  -0.3281662750E-11

%%%% COMPUTE ELECTROSTATIC POTENTIAL %%%%%%%%%%%%%%%%%%%%%%%%%%%%%%%%%%%%%%%%%%%

 Warning: Bad guess with residual norm =   0.135485E+05, reset to no guess

   i |      alpha     |       pAp      |      rzold     |    delta_qm    |    delta_en    |       tol
 ---------------------------------------------------------------------------------------------------------
   1 |   0.997838E+00 |   0.127415E+04 |   0.127140E+04 |   0.131714E+00 |   0.134903E+05 |   0.100000E-04
   2 |   0.288847E-01 |   0.231547E+04 |   0.668816E+02 |   0.143750E+00 |   0.160683E+05 |   0.100000E-04
   3 |   0.114937E+00 |   0.287948E+02 |   0.330958E+01 |   0.166743E+00 |   0.216198E+05 |   0.100000E-04
   4 |  -0.924132E-01 |  -0.275062E+01 |   0.254194E+00 |   0.135354E+00 |   0.142462E+05 |   0.100000E-04
   5 |  -0.174776E+01 |   0.106130E+00 |  -0.185489E+00 |   0.313379E-01 |   0.763653E+03 |   0.100000E-04
   6 |   0.361141E+00 |   0.593929E+00 |   0.214492E+00 |   0.938368E-02 |   0.684704E+02 |   0.100000E-04
   7 |   0.399344E+00 |   0.578160E-01 |   0.230885E-01 |   0.212709E-02 |   0.351826E+01 |   0.100000E-04
   8 |   0.424727E+00 |   0.586295E-02 |   0.249016E-02 |   0.150442E-02 |   0.175993E+01 |   0.100000E-04
   9 |   0.329074E+00 |   0.118270E-02 |   0.389197E-03 |   0.145456E-02 |   0.164521E+01 |   0.100000E-04
  10 |   0.589252E+00 |   0.239487E-03 |   0.141118E-03 |   0.107403E-02 |   0.896989E+00 |   0.100000E-04
  11 |   0.107406E+01 |   0.102447E-03 |   0.110035E-03 |   0.529002E-03 |   0.217606E+00 |   0.100000E-04
  12 |   0.577421E+00 |   0.165538E-03 |   0.955851E-04 |   0.730169E-03 |   0.414575E+00 |   0.100000E-04
  13 |   0.386751E-01 |   0.713852E-02 |   0.276083E-03 |   0.618382E-03 |   0.297352E+00 |   0.100000E-04
  14 |   0.511214E+00 |   0.133785E-03 |   0.683930E-04 |   0.721327E-03 |   0.404595E+00 |   0.100000E-04
  15 |   0.100332E+01 |   0.372666E-04 |   0.373901E-04 |   0.867922E-03 |   0.585757E+00 |   0.100000E-04
  16 |   0.982841E+00 |   0.889880E-04 |   0.874610E-04 |   0.104605E-02 |   0.850867E+00 |   0.100000E-04
  17 |   0.110993E+01 |   0.215537E-03 |   0.239232E-03 |   0.114361E-02 |   0.101698E+01 |   0.100000E-04
  18 |   0.744497E+00 |   0.625372E-03 |   0.465588E-03 |   0.109021E-02 |   0.924223E+00 |   0.100000E-04
  19 |   0.550549E+00 |   0.275326E-03 |   0.151581E-03 |   0.693697E-03 |   0.374193E+00 |   0.100000E-04
  20 |   0.470298E+00 |   0.944198E-04 |   0.444054E-04 |   0.404045E-03 |   0.126945E+00 |   0.100000E-04
  21 |   0.577992E+00 |   0.258792E-04 |   0.149580E-04 |   0.241306E-03 |   0.452787E-01 |   0.100000E-04
  22 |   0.559656E+00 |   0.104001E-04 |   0.582048E-05 |   0.112334E-03 |   0.981253E-02 |   0.100000E-04
  23 |   0.512651E+00 |   0.368630E-05 |   0.188979E-05 |   0.462629E-04 |   0.166426E-02 |   0.100000E-04
  24 |   0.224552E+00 |   0.186817E-05 |   0.419501E-06 |   0.364415E-04 |   0.103264E-02 |   0.100000E-04
  25 |   0.474174E-01 |   0.250137E-04 |   0.118609E-05 |   0.249953E-04 |   0.485818E-03 |   0.100000E-04
  26 |   0.213919E+00 |   0.554320E-06 |   0.118580E-06 |   0.205141E-04 |   0.327236E-03 |   0.100000E-04
  27 |   0.449688E+00 |   0.114407E-06 |   0.514476E-07 |   0.142837E-04 |   0.158648E-03 |   0.100000E-04
  28 |   0.730529E+00 |   0.135249E-07 |   0.988030E-08 |   0.627289E-05 |   0.305979E-04 |   0.100000E-04
  29 |  -0.216750E+00 |   0.220151E-07 |  -0.477177E-08 |   0.975136E-05 |   0.739413E-04 |   0.100000E-04
  30 |  -0.135452E+01 |  -0.419358E-08 |   0.568028E-08 |   0.173526E-04 |   0.234146E-03 |   0.100000E-04
  31 |   0.312902E+00 |   0.710608E-07 |   0.222351E-07 |   0.491165E-05 |   0.187591E-04 |   0.100000E-04
  32 |   0.458189E+00 |   0.584287E-08 |   0.267714E-08 |   0.250106E-05 |   0.486414E-05 |   0.100000E-04

 Charges are converged, EXIT

%%%% DENSITY %%%%%%%%%%%%%%%%%%%%%%%%%%%%%%%%%%%%%%%%%%%%%%%%%%%%%%%%%%%%%%%%%%%

 density label              = velectrostatic                                    

 integral of density        =   -1476.825161    

%%%% CHARGES %%%%%%%%%%%%%%%%%%%%%%%%%%%%%%%%%%%%%%%%%%%%%%%%%%%%%%%%%%%%%%%%%%%

 total number of charges    =             99

 total charge               =     -1.0000000

%%%% DENSITY %%%%%%%%%%%%%%%%%%%%%%%%%%%%%%%%%%%%%%%%%%%%%%%%%%%%%%%%%%%%%%%%%%%

 density label              = vsoftcavity                                       

 integral of density        =    40.51737174    

%%%% DENSITY %%%%%%%%%%%%%%%%%%%%%%%%%%%%%%%%%%%%%%%%%%%%%%%%%%%%%%%%%%%%%%%%%%%

 density label              = dvtot                                             

 integral of density        =   -1436.307789    

%%%% ELECTRONS %%%%%%%%%%%%%%%%%%%%%%%%%%%%%%%%%%%%%%%%%%%%%%%%%%%%%%%%%%%%%%%%%

 number of electrons        =             89

 total electronic charge    =     89.0000000

%%%% ELECTRONS %%%%%%%%%%%%%%%%%%%%%%%%%%%%%%%%%%%%%%%%%%%%%%%%%%%%%%%%%%%%%%%%%

 number of electrons        =             89

 total electronic charge    =     89.0000000

%%%% CHARGES %%%%%%%%%%%%%%%%%%%%%%%%%%%%%%%%%%%%%%%%%%%%%%%%%%%%%%%%%%%%%%%%%%%

 total number of charges    =             99

 total charge               =     -1.0000000

%%%% CHARGES %%%%%%%%%%%%%%%%%%%%%%%%%%%%%%%%%%%%%%%%%%%%%%%%%%%%%%%%%%%%%%%%%%%

 total number of charges    =             99

 total charge               =     -1.0000000

%%%% BOUNDARY %%%%%%%%%%%%%%%%%%%%%%%%%%%%%%%%%%%%%%%%%%%%%%%%%%%%%%%%%%%%%%%%%%

 boundary label             = solvent             
 boundary mode              = full                

 using the optimal SCCS function:
 rhomax                     =      0.0050000
 rhomin                     =      0.0001000

 volume of the QM region    =   1387.7841295

 surface of the QM region   =    272.6726737

%%%% DENSITY %%%%%%%%%%%%%%%%%%%%%%%%%%%%%%%%%%%%%%%%%%%%%%%%%%%%%%%%%%%%%%%%%%%

 density label              = vreference                                        

 integral of density        =   0.5617256678E-11

%%%% COMPUTE ELECTROSTATIC POTENTIAL %%%%%%%%%%%%%%%%%%%%%%%%%%%%%%%%%%%%%%%%%%%

 Warning: Bad guess with residual norm =   0.128628E+05, reset to no guess

   i |      alpha     |       pAp      |      rzold     |    delta_qm    |    delta_en    |       tol
 ---------------------------------------------------------------------------------------------------------
   1 |   0.997925E+00 |   0.127295E+04 |   0.127031E+04 |   0.128349E+00 |   0.128098E+05 |   0.100000E-04
   2 |   0.289794E-01 |   0.219191E+04 |   0.635201E+02 |   0.134454E+00 |   0.140574E+05 |   0.100000E-04
   3 |   0.113597E+00 |   0.325535E+02 |   0.369798E+01 |   0.154182E+00 |   0.184851E+05 |   0.100000E-04
   4 |  -0.136432E+00 |  -0.297612E+01 |   0.406040E+00 |   0.112550E+00 |   0.985025E+04 |   0.100000E-04
   5 |  -0.113582E+01 |   0.234622E+00 |  -0.266489E+00 |   0.271868E-01 |   0.574741E+03 |   0.100000E-04
   6 |   0.366377E+00 |   0.522878E+00 |   0.191570E+00 |   0.830453E-02 |   0.536274E+02 |   0.100000E-04
   7 |   0.392051E+00 |   0.500843E-01 |   0.196356E-01 |   0.217021E-02 |   0.366236E+01 |   0.100000E-04
   8 |   0.422534E+00 |   0.594326E-02 |   0.251123E-02 |   0.151348E-02 |   0.178119E+01 |   0.100000E-04
   9 |   0.510662E+00 |   0.514232E-03 |   0.262599E-03 |   0.137420E-02 |   0.146845E+01 |   0.100000E-04
  10 |   0.819097E+00 |   0.134247E-03 |   0.109962E-03 |   0.834208E-03 |   0.541134E+00 |   0.100000E-04
  11 |   0.617733E+00 |   0.248397E-03 |   0.153443E-03 |   0.577431E-03 |   0.259272E+00 |   0.100000E-04
  12 |   0.429848E+00 |   0.263967E-03 |   0.113465E-03 |   0.562039E-03 |   0.245634E+00 |   0.100000E-04
  13 |   0.470675E-01 |   0.308392E-02 |   0.145153E-03 |   0.678185E-03 |   0.357645E+00 |   0.100000E-04
  14 |   0.322260E+00 |   0.270662E-03 |   0.872237E-04 |   0.625743E-03 |   0.304473E+00 |   0.100000E-04
  15 |   0.812803E+00 |   0.402674E-04 |   0.327294E-04 |   0.687071E-03 |   0.367079E+00 |   0.100000E-04
  16 |   0.105699E+01 |   0.499481E-04 |   0.527944E-04 |   0.848351E-03 |   0.559638E+00 |   0.100000E-04
  17 |   0.110682E+01 |   0.128363E-03 |   0.142074E-03 |   0.106901E-02 |   0.888621E+00 |   0.100000E-04
  18 |   0.840849E+00 |   0.411094E-03 |   0.345668E-03 |   0.103814E-02 |   0.838050E+00 |   0.100000E-04
  19 |   0.509262E+00 |   0.319602E-03 |   0.162761E-03 |   0.752758E-03 |   0.440623E+00 |   0.100000E-04
  20 |   0.531102E+00 |   0.923873E-04 |   0.490671E-04 |   0.425459E-03 |   0.140758E+00 |   0.100000E-04
  21 |   0.705393E+00 |   0.214420E-04 |   0.151251E-04 |   0.222723E-03 |   0.385732E-01 |   0.100000E-04
  22 |   0.523940E+00 |   0.132901E-04 |   0.696324E-05 |   0.115957E-03 |   0.104557E-01 |   0.100000E-04
  23 |   0.426429E+00 |   0.558198E-05 |   0.238032E-05 |   0.819035E-04 |   0.521628E-02 |   0.100000E-04
  24 |   0.347679E-01 |   0.172795E-03 |   0.600772E-05 |   0.557100E-04 |   0.241336E-02 |   0.100000E-04
  25 |   0.435379E+00 |   0.114702E-05 |   0.499390E-06 |   0.383444E-04 |   0.114330E-02 |   0.100000E-04
  26 |   0.454258E+00 |   0.283945E-06 |   0.128984E-06 |   0.270160E-04 |   0.567541E-03 |   0.100000E-04
  27 |   0.230060E+00 |   0.630118E-06 |   0.144965E-06 |   0.190803E-04 |   0.283091E-03 |   0.100000E-04
  28 |   0.717492E+00 |   0.473096E-07 |   0.339443E-07 |   0.144628E-04 |   0.162652E-03 |   0.100000E-04
  29 |  -0.350423E+00 |   0.152353E-07 |  -0.533878E-08 |   0.131030E-04 |   0.133505E-03 |   0.100000E-04
  30 |  -0.218908E+00 |  -0.749217E-07 |   0.164010E-07 |   0.205923E-04 |   0.329735E-03 |   0.100000E-04
  31 |   0.119865E+01 |   0.725567E-08 |   0.869700E-08 |   0.910795E-05 |   0.645056E-04 |   0.100000E-04
  32 |   0.868190E+00 |   0.687548E-08 |   0.596923E-08 |   0.548953E-05 |   0.234329E-04 |   0.100000E-04
  33 |   0.758891E+00 |   0.234022E-08 |   0.177597E-08 |   0.330381E-05 |   0.848765E-05 |   0.100000E-04

 Charges are converged, EXIT

%%%% DENSITY %%%%%%%%%%%%%%%%%%%%%%%%%%%%%%%%%%%%%%%%%%%%%%%%%%%%%%%%%%%%%%%%%%%

 density label              = velectrostatic                                    

 integral of density        =   -1448.865876    

%%%% CHARGES %%%%%%%%%%%%%%%%%%%%%%%%%%%%%%%%%%%%%%%%%%%%%%%%%%%%%%%%%%%%%%%%%%%

 total number of charges    =             99

 total charge               =     -1.0000000

%%%% DENSITY %%%%%%%%%%%%%%%%%%%%%%%%%%%%%%%%%%%%%%%%%%%%%%%%%%%%%%%%%%%%%%%%%%%

 density label              = vsoftcavity                                       

 integral of density        =    39.00156907    

%%%% DENSITY %%%%%%%%%%%%%%%%%%%%%%%%%%%%%%%%%%%%%%%%%%%%%%%%%%%%%%%%%%%%%%%%%%%

 density label              = dvtot                                             

 integral of density        =   -1409.864307    

%%%% ELECTRONS %%%%%%%%%%%%%%%%%%%%%%%%%%%%%%%%%%%%%%%%%%%%%%%%%%%%%%%%%%%%%%%%%

 number of electrons        =             89

 total electronic charge    =     89.0000000

%%%% ELECTRONS %%%%%%%%%%%%%%%%%%%%%%%%%%%%%%%%%%%%%%%%%%%%%%%%%%%%%%%%%%%%%%%%%

 number of electrons        =             89

 total electronic charge    =     89.0000000

%%%% CHARGES %%%%%%%%%%%%%%%%%%%%%%%%%%%%%%%%%%%%%%%%%%%%%%%%%%%%%%%%%%%%%%%%%%%

 total number of charges    =             99

 total charge               =     -1.0000000

%%%% CHARGES %%%%%%%%%%%%%%%%%%%%%%%%%%%%%%%%%%%%%%%%%%%%%%%%%%%%%%%%%%%%%%%%%%%

 total number of charges    =             99

 total charge               =     -1.0000000

%%%% BOUNDARY %%%%%%%%%%%%%%%%%%%%%%%%%%%%%%%%%%%%%%%%%%%%%%%%%%%%%%%%%%%%%%%%%%

 boundary label             = solvent             
 boundary mode              = full                

 using the optimal SCCS function:
 rhomax                     =      0.0050000
 rhomin                     =      0.0001000

 volume of the QM region    =   1382.1899072

 surface of the QM region   =    268.6828318

%%%% DENSITY %%%%%%%%%%%%%%%%%%%%%%%%%%%%%%%%%%%%%%%%%%%%%%%%%%%%%%%%%%%%%%%%%%%

 density label              = vreference                                        

 integral of density        =   0.1896559642E-11

%%%% COMPUTE ELECTROSTATIC POTENTIAL %%%%%%%%%%%%%%%%%%%%%%%%%%%%%%%%%%%%%%%%%%%

 Warning: Bad guess with residual norm =   0.944078E+04, reset to no guess

   i |      alpha     |       pAp      |      rzold     |    delta_qm    |    delta_en    |       tol
 ---------------------------------------------------------------------------------------------------------
   1 |   0.998064E+00 |   0.127213E+04 |   0.126967E+04 |   0.109974E+00 |   0.940453E+04 |   0.100000E-04
   2 |   0.304010E-01 |   0.185885E+04 |   0.565108E+02 |   0.109846E+00 |   0.938260E+04 |   0.100000E-04
   3 |   0.121854E+00 |   0.343600E+02 |   0.418690E+01 |   0.120924E+00 |   0.113706E+05 |   0.100000E-04
   4 |  -0.250383E+00 |  -0.333943E+01 |   0.836137E+00 |   0.701857E-01 |   0.383049E+04 |   0.100000E-04
   5 |  -0.573008E+00 |   0.971840E+00 |  -0.556872E+00 |   0.164529E-01 |   0.210494E+03 |   0.100000E-04
   6 |   0.341221E+00 |   0.517254E+00 |   0.176498E+00 |   0.554202E-02 |   0.238832E+02 |   0.100000E-04
   7 |   0.386942E+00 |   0.396671E-01 |   0.153488E-01 |   0.169606E-02 |   0.223686E+01 |   0.100000E-04
   8 |   0.420079E+00 |   0.488335E-02 |   0.205139E-02 |   0.112008E-02 |   0.975555E+00 |   0.100000E-04
   9 |   0.332854E+00 |   0.114117E-02 |   0.379842E-03 |   0.112788E-02 |   0.989199E+00 |   0.100000E-04
  10 |   0.565732E+00 |   0.240109E-03 |   0.135837E-03 |   0.927875E-03 |   0.669477E+00 |   0.100000E-04
  11 |   0.110338E+01 |   0.899575E-04 |   0.992571E-04 |   0.482891E-03 |   0.181324E+00 |   0.100000E-04
  12 |   0.580516E+00 |   0.163126E-03 |   0.946973E-04 |   0.543935E-03 |   0.230065E+00 |   0.100000E-04
  13 |   0.164413E+00 |   0.310222E-03 |   0.510044E-04 |   0.437064E-03 |   0.148541E+00 |   0.100000E-04
  14 |   0.105344E+00 |   0.172508E-02 |   0.181726E-03 |   0.534371E-03 |   0.222045E+00 |   0.100000E-04
  15 |   0.124360E+01 |   0.235857E-04 |   0.293312E-04 |   0.584390E-03 |   0.265560E+00 |   0.100000E-04
  16 |   0.138973E+01 |   0.487803E-04 |   0.677913E-04 |   0.826073E-03 |   0.530631E+00 |   0.100000E-04
  17 |   0.129189E+01 |   0.124667E-03 |   0.161057E-03 |   0.775088E-03 |   0.467153E+00 |   0.100000E-04
  18 |   0.374902E+00 |   0.639401E-03 |   0.239713E-03 |   0.527675E-03 |   0.216515E+00 |   0.100000E-04
  19 |   0.356607E+00 |   0.263003E-03 |   0.937885E-04 |   0.359752E-03 |   0.100638E+00 |   0.100000E-04
  20 |   0.495158E+00 |   0.386257E-04 |   0.191258E-04 |   0.236940E-03 |   0.436550E-01 |   0.100000E-04
  21 |   0.842211E+00 |   0.574297E-05 |   0.483679E-05 |   0.112815E-03 |   0.989669E-02 |   0.100000E-04
  22 |   0.562705E+00 |   0.417635E-05 |   0.235005E-05 |   0.616908E-04 |   0.295936E-02 |   0.100000E-04
  23 |   0.454113E+00 |   0.163615E-05 |   0.742997E-06 |   0.432591E-04 |   0.145516E-02 |   0.100000E-04
  24 |   0.153407E+00 |   0.282942E-05 |   0.434052E-06 |   0.361506E-04 |   0.101622E-02 |   0.100000E-04
  25 |   0.480787E-01 |   0.124243E-04 |   0.597345E-06 |   0.346354E-04 |   0.932816E-03 |   0.100000E-04
  26 |   0.394244E+00 |   0.417195E-06 |   0.164476E-06 |   0.208517E-04 |   0.338096E-03 |   0.100000E-04
  27 |   0.557568E+00 |   0.125716E-06 |   0.700952E-07 |   0.141452E-04 |   0.155587E-03 |   0.100000E-04
  28 |   0.922789E+00 |   0.269076E-07 |   0.248300E-07 |   0.106459E-04 |   0.881302E-04 |   0.100000E-04
  29 |   0.919886E+00 |   0.126745E-07 |   0.116591E-07 |   0.844642E-05 |   0.554755E-04 |   0.100000E-04
  30 |  -0.322097E+00 |   0.920497E-07 |  -0.296490E-07 |   0.228449E-04 |   0.405821E-03 |   0.100000E-04
  31 |  -0.251717E+00 |  -0.341757E-06 |   0.860261E-07 |   0.444796E-05 |   0.153843E-04 |   0.100000E-04
  32 |   0.499512E+00 |   0.710232E-08 |   0.354769E-08 |   0.243578E-05 |   0.461354E-05 |   0.100000E-04

 Charges are converged, EXIT

%%%% DENSITY %%%%%%%%%%%%%%%%%%%%%%%%%%%%%%%%%%%%%%%%%%%%%%%%%%%%%%%%%%%%%%%%%%%

 density label              = velectrostatic                                    

 integral of density        =   -1436.018761    

%%%% CHARGES %%%%%%%%%%%%%%%%%%%%%%%%%%%%%%%%%%%%%%%%%%%%%%%%%%%%%%%%%%%%%%%%%%%

 total number of charges    =             99

 total charge               =     -1.0000000

%%%% DENSITY %%%%%%%%%%%%%%%%%%%%%%%%%%%%%%%%%%%%%%%%%%%%%%%%%%%%%%%%%%%%%%%%%%%

 density label              = vsoftcavity                                       

 integral of density        =    38.08935884    

%%%% DENSITY %%%%%%%%%%%%%%%%%%%%%%%%%%%%%%%%%%%%%%%%%%%%%%%%%%%%%%%%%%%%%%%%%%%

 density label              = dvtot                                             

 integral of density        =   -1397.929402    

%%%% ELECTRONS %%%%%%%%%%%%%%%%%%%%%%%%%%%%%%%%%%%%%%%%%%%%%%%%%%%%%%%%%%%%%%%%%

 number of electrons        =             89

 total electronic charge    =     89.0000000

%%%% ELECTRONS %%%%%%%%%%%%%%%%%%%%%%%%%%%%%%%%%%%%%%%%%%%%%%%%%%%%%%%%%%%%%%%%%

 number of electrons        =             89

 total electronic charge    =     89.0000000

%%%% CHARGES %%%%%%%%%%%%%%%%%%%%%%%%%%%%%%%%%%%%%%%%%%%%%%%%%%%%%%%%%%%%%%%%%%%

 total number of charges    =             99

 total charge               =     -1.0000000

%%%% CHARGES %%%%%%%%%%%%%%%%%%%%%%%%%%%%%%%%%%%%%%%%%%%%%%%%%%%%%%%%%%%%%%%%%%%

 total number of charges    =             99

 total charge               =     -1.0000000

%%%% BOUNDARY %%%%%%%%%%%%%%%%%%%%%%%%%%%%%%%%%%%%%%%%%%%%%%%%%%%%%%%%%%%%%%%%%%

 boundary label             = solvent             
 boundary mode              = full                

 using the optimal SCCS function:
 rhomax                     =      0.0050000
 rhomin                     =      0.0001000

 volume of the QM region    =   1377.1312200

 surface of the QM region   =    267.8622286

%%%% DENSITY %%%%%%%%%%%%%%%%%%%%%%%%%%%%%%%%%%%%%%%%%%%%%%%%%%%%%%%%%%%%%%%%%%%

 density label              = vreference                                        

 integral of density        =  -0.7338598093E-11

%%%% COMPUTE ELECTROSTATIC POTENTIAL %%%%%%%%%%%%%%%%%%%%%%%%%%%%%%%%%%%%%%%%%%%

 Warning: Bad guess with residual norm =   0.768744E+04, reset to no guess

   i |      alpha     |       pAp      |      rzold     |    delta_qm    |    delta_en    |       tol
 ---------------------------------------------------------------------------------------------------------
   1 |   0.997996E+00 |   0.127233E+04 |   0.126978E+04 |   0.992315E-01 |   0.765694E+04 |   0.100000E-04
   2 |   0.308607E-01 |   0.185290E+04 |   0.571817E+02 |   0.991998E-01 |   0.765206E+04 |   0.100000E-04
   3 |   0.118271E+00 |   0.402702E+02 |   0.476278E+01 |   0.106164E+00 |   0.876410E+04 |   0.100000E-04
   4 |  -0.281751E+00 |  -0.295221E+01 |   0.831789E+00 |   0.598277E-01 |   0.278331E+04 |   0.100000E-04
   5 |  -0.508167E+00 |   0.118568E+01 |  -0.602525E+00 |   0.148678E-01 |   0.171890E+03 |   0.100000E-04
   6 |   0.330698E+00 |   0.638506E+00 |   0.211152E+00 |   0.500643E-02 |   0.194900E+02 |   0.100000E-04
   7 |   0.385617E+00 |   0.414821E-01 |   0.159962E-01 |   0.154862E-02 |   0.186485E+01 |   0.100000E-04
   8 |   0.428422E+00 |   0.473514E-02 |   0.202864E-02 |   0.991354E-03 |   0.764212E+00 |   0.100000E-04
   9 |   0.334980E+00 |   0.118489E-02 |   0.396913E-03 |   0.985071E-03 |   0.754555E+00 |   0.100000E-04
  10 |   0.514808E+00 |   0.270714E-03 |   0.139366E-03 |   0.834170E-03 |   0.541085E+00 |   0.100000E-04
  11 |   0.104544E+01 |   0.847821E-04 |   0.886345E-04 |   0.437521E-03 |   0.148852E+00 |   0.100000E-04
  12 |   0.588363E+00 |   0.143275E-03 |   0.842980E-04 |   0.344070E-03 |   0.920554E-01 |   0.100000E-04
  13 |   0.577609E-01 |   0.112937E-02 |   0.652333E-04 |   0.423660E-03 |   0.139570E+00 |   0.100000E-04
  14 |   0.273915E+00 |   0.221679E-03 |   0.607212E-04 |   0.387127E-03 |   0.116537E+00 |   0.100000E-04
  15 |   0.740418E+00 |   0.286456E-04 |   0.212097E-04 |   0.404857E-03 |   0.127456E+00 |   0.100000E-04
  16 |   0.926088E+00 |   0.445849E-04 |   0.412896E-04 |   0.499102E-03 |   0.193703E+00 |   0.100000E-04
  17 |   0.101572E+01 |   0.731574E-04 |   0.743074E-04 |   0.604673E-03 |   0.284314E+00 |   0.100000E-04
  18 |   0.657051E+00 |   0.200379E-03 |   0.131659E-03 |   0.377730E-03 |   0.110948E+00 |   0.100000E-04
  19 |   0.504732E+00 |   0.932814E-04 |   0.470821E-04 |   0.212168E-03 |   0.350040E-01 |   0.100000E-04
  20 |   0.515669E+00 |   0.169276E-04 |   0.872905E-05 |   0.139837E-03 |   0.152054E-01 |   0.100000E-04
  21 |   0.845873E+00 |   0.224167E-05 |   0.189617E-05 |   0.661779E-04 |   0.340551E-02 |   0.100000E-04
  22 |   0.618125E+00 |   0.156541E-05 |   0.967621E-06 |   0.364465E-04 |   0.103292E-02 |   0.100000E-04
  23 |   0.514185E+00 |   0.574371E-06 |   0.295333E-06 |   0.277594E-04 |   0.599208E-03 |   0.100000E-04
  24 |   0.354537E-01 |   0.108174E-04 |   0.383517E-06 |   0.243364E-04 |   0.460543E-03 |   0.100000E-04
  25 |   0.513621E+00 |   0.138556E-06 |   0.711654E-07 |   0.144828E-04 |   0.163103E-03 |   0.100000E-04
  26 |   0.269887E+00 |   0.204499E-06 |   0.551918E-07 |   0.108482E-04 |   0.915102E-04 |   0.100000E-04
  27 |   0.334808E+00 |   0.998289E-07 |   0.334235E-07 |   0.662025E-05 |   0.340804E-04 |   0.100000E-04
  28 |   0.642572E+00 |   0.179775E-07 |   0.115519E-07 |   0.297506E-05 |   0.688252E-05 |   0.100000E-04

 Charges are converged, EXIT

%%%% DENSITY %%%%%%%%%%%%%%%%%%%%%%%%%%%%%%%%%%%%%%%%%%%%%%%%%%%%%%%%%%%%%%%%%%%

 density label              = velectrostatic                                    

 integral of density        =   -1433.063901    

%%%% CHARGES %%%%%%%%%%%%%%%%%%%%%%%%%%%%%%%%%%%%%%%%%%%%%%%%%%%%%%%%%%%%%%%%%%%

 total number of charges    =             99

 total charge               =     -1.0000000

%%%% DENSITY %%%%%%%%%%%%%%%%%%%%%%%%%%%%%%%%%%%%%%%%%%%%%%%%%%%%%%%%%%%%%%%%%%%

 density label              = vsoftcavity                                       

 integral of density        =    37.96025548    

%%%% DENSITY %%%%%%%%%%%%%%%%%%%%%%%%%%%%%%%%%%%%%%%%%%%%%%%%%%%%%%%%%%%%%%%%%%%

 density label              = dvtot                                             

 integral of density        =   -1395.103646    

%%%% ELECTRONS %%%%%%%%%%%%%%%%%%%%%%%%%%%%%%%%%%%%%%%%%%%%%%%%%%%%%%%%%%%%%%%%%

 number of electrons        =             89

 total electronic charge    =     89.0000000

%%%% ELECTRONS %%%%%%%%%%%%%%%%%%%%%%%%%%%%%%%%%%%%%%%%%%%%%%%%%%%%%%%%%%%%%%%%%

 number of electrons        =             89

 total electronic charge    =     89.0000000

%%%% CHARGES %%%%%%%%%%%%%%%%%%%%%%%%%%%%%%%%%%%%%%%%%%%%%%%%%%%%%%%%%%%%%%%%%%%

 total number of charges    =             99

 total charge               =     -1.0000000

%%%% CHARGES %%%%%%%%%%%%%%%%%%%%%%%%%%%%%%%%%%%%%%%%%%%%%%%%%%%%%%%%%%%%%%%%%%%

 total number of charges    =             99

 total charge               =     -1.0000000

%%%% BOUNDARY %%%%%%%%%%%%%%%%%%%%%%%%%%%%%%%%%%%%%%%%%%%%%%%%%%%%%%%%%%%%%%%%%%

 boundary label             = solvent             
 boundary mode              = full                

 using the optimal SCCS function:
 rhomax                     =      0.0050000
 rhomin                     =      0.0001000

 volume of the QM region    =   1376.4310525

 surface of the QM region   =    267.6034560

%%%% DENSITY %%%%%%%%%%%%%%%%%%%%%%%%%%%%%%%%%%%%%%%%%%%%%%%%%%%%%%%%%%%%%%%%%%%

 density label              = vreference                                        

 integral of density        =  -0.7773043531E-13

%%%% COMPUTE ELECTROSTATIC POTENTIAL %%%%%%%%%%%%%%%%%%%%%%%%%%%%%%%%%%%%%%%%%%%

 Warning: Bad guess with residual norm =   0.728260E+04, reset to no guess

   i |      alpha     |       pAp      |      rzold     |    delta_qm    |    delta_en    |       tol
 ---------------------------------------------------------------------------------------------------------
   1 |   0.997916E+00 |   0.127267E+04 |   0.127002E+04 |   0.965759E-01 |   0.725259E+04 |   0.100000E-04
   2 |   0.307724E-01 |   0.197654E+04 |   0.608230E+02 |   0.933520E-01 |   0.677647E+04 |   0.100000E-04
   3 |   0.120262E+00 |   0.390599E+02 |   0.469743E+01 |   0.998391E-01 |   0.775099E+04 |   0.100000E-04
   4 |  -0.291758E+00 |  -0.294054E+01 |   0.857926E+00 |   0.558569E-01 |   0.242610E+04 |   0.100000E-04
   5 |  -0.492169E+00 |   0.130085E+01 |  -0.640240E+00 |   0.140434E-01 |   0.153357E+03 |   0.100000E-04
   6 |   0.326520E+00 |   0.644244E+00 |   0.210358E+00 |   0.459332E-02 |   0.164062E+02 |   0.100000E-04
   7 |   0.388731E+00 |   0.393360E-01 |   0.152911E-01 |   0.145540E-02 |   0.164710E+01 |   0.100000E-04
   8 |   0.430911E+00 |   0.446485E-02 |   0.192395E-02 |   0.928869E-03 |   0.670912E+00 |   0.100000E-04
   9 |   0.333521E+00 |   0.117963E-02 |   0.393433E-03 |   0.928420E-03 |   0.670263E+00 |   0.100000E-04
  10 |   0.521045E+00 |   0.260895E-03 |   0.135938E-03 |   0.790147E-03 |   0.485480E+00 |   0.100000E-04
  11 |   0.104392E+01 |   0.846384E-04 |   0.883557E-04 |   0.425425E-03 |   0.140735E+00 |   0.100000E-04
  12 |   0.622174E+00 |   0.134129E-03 |   0.834514E-04 |   0.372527E-03 |   0.107913E+00 |   0.100000E-04
  13 |   0.421044E+00 |   0.809102E-04 |   0.340667E-04 |   0.465609E-03 |   0.168577E+00 |   0.100000E-04
  14 |   0.446303E-01 |   0.324227E-02 |   0.144704E-03 |   0.385363E-03 |   0.115477E+00 |   0.100000E-04
  15 |   0.812240E+00 |   0.287579E-04 |   0.233583E-04 |   0.408551E-03 |   0.129792E+00 |   0.100000E-04
  16 |   0.817420E+00 |   0.666948E-04 |   0.545176E-04 |   0.505219E-03 |   0.198480E+00 |   0.100000E-04
  17 |   0.114091E+01 |   0.693758E-04 |   0.791512E-04 |   0.566963E-03 |   0.249958E+00 |   0.100000E-04
  18 |   0.508543E+00 |   0.236725E-03 |   0.120385E-03 |   0.313662E-03 |   0.765033E-01 |   0.100000E-04
  19 |   0.460541E+00 |   0.834932E-04 |   0.384520E-04 |   0.189460E-03 |   0.279120E-01 |   0.100000E-04
  20 |   0.514421E+00 |   0.140049E-04 |   0.720442E-05 |   0.127466E-03 |   0.126341E-01 |   0.100000E-04
  21 |   0.885267E+00 |   0.193139E-05 |   0.170980E-05 |   0.623233E-04 |   0.302035E-02 |   0.100000E-04
  22 |   0.626284E+00 |   0.151230E-05 |   0.947130E-06 |   0.356093E-04 |   0.986013E-03 |   0.100000E-04
  23 |   0.541189E+00 |   0.544514E-06 |   0.294685E-06 |   0.258439E-04 |   0.519365E-03 |   0.100000E-04
  24 |   0.722964E-01 |   0.160731E-05 |   0.116203E-06 |   0.232397E-04 |   0.419968E-03 |   0.100000E-04
  25 |   0.190167E+00 |   0.804616E-06 |   0.153011E-06 |   0.170760E-04 |   0.226740E-03 |   0.100000E-04
  26 |   0.255681E+00 |   0.325860E-06 |   0.833161E-07 |   0.985079E-05 |   0.754568E-04 |   0.100000E-04
  27 |   0.434767E+00 |   0.662740E-07 |   0.288138E-07 |   0.640264E-05 |   0.318767E-04 |   0.100000E-04
  28 |   0.610592E+00 |   0.167722E-07 |   0.102410E-07 |   0.300868E-05 |   0.703897E-05 |   0.100000E-04

 Charges are converged, EXIT

%%%% DENSITY %%%%%%%%%%%%%%%%%%%%%%%%%%%%%%%%%%%%%%%%%%%%%%%%%%%%%%%%%%%%%%%%%%%

 density label              = velectrostatic                                    

 integral of density        =   -1427.680882    

%%%% CHARGES %%%%%%%%%%%%%%%%%%%%%%%%%%%%%%%%%%%%%%%%%%%%%%%%%%%%%%%%%%%%%%%%%%%

 total number of charges    =             99

 total charge               =     -1.0000000

%%%% DENSITY %%%%%%%%%%%%%%%%%%%%%%%%%%%%%%%%%%%%%%%%%%%%%%%%%%%%%%%%%%%%%%%%%%%

 density label              = vsoftcavity                                       

 integral of density        =    37.83865194    

%%%% DENSITY %%%%%%%%%%%%%%%%%%%%%%%%%%%%%%%%%%%%%%%%%%%%%%%%%%%%%%%%%%%%%%%%%%%

 density label              = dvtot                                             

 integral of density        =   -1389.842230    

%%%% ELECTRONS %%%%%%%%%%%%%%%%%%%%%%%%%%%%%%%%%%%%%%%%%%%%%%%%%%%%%%%%%%%%%%%%%

 number of electrons        =             89

 total electronic charge    =     89.0000000

%%%% ELECTRONS %%%%%%%%%%%%%%%%%%%%%%%%%%%%%%%%%%%%%%%%%%%%%%%%%%%%%%%%%%%%%%%%%

 number of electrons        =             89

 total electronic charge    =     89.0000000

%%%% CHARGES %%%%%%%%%%%%%%%%%%%%%%%%%%%%%%%%%%%%%%%%%%%%%%%%%%%%%%%%%%%%%%%%%%%

 total number of charges    =             99

 total charge               =     -1.0000000

%%%% CHARGES %%%%%%%%%%%%%%%%%%%%%%%%%%%%%%%%%%%%%%%%%%%%%%%%%%%%%%%%%%%%%%%%%%%

 total number of charges    =             99

 total charge               =     -1.0000000

%%%% BOUNDARY %%%%%%%%%%%%%%%%%%%%%%%%%%%%%%%%%%%%%%%%%%%%%%%%%%%%%%%%%%%%%%%%%%

 boundary label             = solvent             
 boundary mode              = full                

 using the optimal SCCS function:
 rhomax                     =      0.0050000
 rhomin                     =      0.0001000

 volume of the QM region    =   1375.4663242

 surface of the QM region   =    267.7842617

%%%% DENSITY %%%%%%%%%%%%%%%%%%%%%%%%%%%%%%%%%%%%%%%%%%%%%%%%%%%%%%%%%%%%%%%%%%%

 density label              = vreference                                        

 integral of density        =  -0.8510354408E-12

%%%% COMPUTE ELECTROSTATIC POTENTIAL %%%%%%%%%%%%%%%%%%%%%%%%%%%%%%%%%%%%%%%%%%%

 Warning: Bad guess with residual norm =   0.718440E+04, reset to no guess

   i |      alpha     |       pAp      |      rzold     |    delta_qm    |    delta_en    |       tol
 ---------------------------------------------------------------------------------------------------------
   1 |   0.997929E+00 |   0.127259E+04 |   0.126996E+04 |   0.959238E-01 |   0.715499E+04 |   0.100000E-04
   2 |   0.308608E-01 |   0.194588E+04 |   0.600514E+02 |   0.918651E-01 |   0.656231E+04 |   0.100000E-04
   3 |   0.119654E+00 |   0.399599E+02 |   0.478136E+01 |   0.976211E-01 |   0.741043E+04 |   0.100000E-04
   4 |  -0.299192E+00 |  -0.289010E+01 |   0.864694E+00 |   0.540234E-01 |   0.226945E+04 |   0.100000E-04
   5 |  -0.479102E+00 |   0.137862E+01 |  -0.660499E+00 |   0.135546E-01 |   0.142866E+03 |   0.100000E-04
   6 |   0.326273E+00 |   0.648477E+00 |   0.211580E+00 |   0.438644E-02 |   0.149617E+02 |   0.100000E-04
   7 |   0.385516E+00 |   0.395156E-01 |   0.152339E-01 |   0.143987E-02 |   0.161214E+01 |   0.100000E-04
   8 |   0.432152E+00 |   0.446948E-02 |   0.193149E-02 |   0.911172E-03 |   0.645590E+00 |   0.100000E-04
   9 |   0.336492E+00 |   0.115962E-02 |   0.390202E-03 |   0.912823E-03 |   0.647932E+00 |   0.100000E-04
  10 |   0.514707E+00 |   0.267899E-03 |   0.137889E-03 |   0.784148E-03 |   0.478137E+00 |   0.100000E-04
  11 |   0.105240E+01 |   0.839462E-04 |   0.883451E-04 |   0.425477E-03 |   0.140770E+00 |   0.100000E-04
  12 |   0.598118E+00 |   0.140332E-03 |   0.839350E-04 |   0.330182E-03 |   0.847742E-01 |   0.100000E-04
  13 |   0.547270E-01 |   0.125957E-02 |   0.689326E-04 |   0.408430E-03 |   0.129715E+00 |   0.100000E-04
  14 |   0.305214E+00 |   0.188161E-03 |   0.574295E-04 |   0.380468E-03 |   0.112562E+00 |   0.100000E-04
  15 |   0.938606E+00 |   0.223714E-04 |   0.209979E-04 |   0.390493E-03 |   0.118572E+00 |   0.100000E-04
  16 |   0.826615E+00 |   0.613447E-04 |   0.507084E-04 |   0.466758E-03 |   0.169410E+00 |   0.100000E-04
  17 |   0.840529E+00 |   0.994759E-04 |   0.836124E-04 |   0.537363E-03 |   0.224539E+00 |   0.100000E-04
  18 |   0.568378E+00 |   0.203188E-03 |   0.115488E-03 |   0.320837E-03 |   0.800431E-01 |   0.100000E-04
  19 |   0.505821E+00 |   0.686748E-04 |   0.347372E-04 |   0.177127E-03 |   0.243964E-01 |   0.100000E-04
  20 |   0.528829E+00 |   0.123642E-04 |   0.653856E-05 |   0.120637E-03 |   0.113166E-01 |   0.100000E-04
  21 |   0.899456E+00 |   0.179091E-05 |   0.161084E-05 |   0.596241E-04 |   0.276439E-02 |   0.100000E-04
  22 |   0.624962E+00 |   0.149059E-05 |   0.931560E-06 |   0.333696E-04 |   0.865881E-03 |   0.100000E-04
[...]
  25 |   0.142576E+00 |   0.164161E-05 |   0.234054E-06 |   0.153747E-04 |   0.183809E-03 |   0.100000E-04
  26 |   0.251061E+00 |   0.300793E-06 |   0.755175E-07 |   0.103203E-04 |   0.828213E-04 |   0.100000E-04
  27 |   0.365939E+00 |   0.996926E-07 |   0.364814E-07 |   0.563419E-05 |   0.246842E-04 |   0.100000E-04
  28 |   0.603611E+00 |   0.163015E-07 |   0.983977E-08 |   0.257721E-05 |   0.516482E-05 |   0.100000E-04

 Charges are converged, EXIT

%%%% DENSITY %%%%%%%%%%%%%%%%%%%%%%%%%%%%%%%%%%%%%%%%%%%%%%%%%%%%%%%%%%%%%%%%%%%

 density label              = velectrostatic                                    

 integral of density        =   -1424.128620    

%%%% CHARGES %%%%%%%%%%%%%%%%%%%%%%%%%%%%%%%%%%%%%%%%%%%%%%%%%%%%%%%%%%%%%%%%%%%

 total number of charges    =             99

 total charge               =     -1.0000000

%%%% DENSITY %%%%%%%%%%%%%%%%%%%%%%%%%%%%%%%%%%%%%%%%%%%%%%%%%%%%%%%%%%%%%%%%%%%

 density label              = vsoftcavity                                       

 integral of density        =    38.44535686    

%%%% DENSITY %%%%%%%%%%%%%%%%%%%%%%%%%%%%%%%%%%%%%%%%%%%%%%%%%%%%%%%%%%%%%%%%%%%

 density label              = dvtot                                             

 integral of density        =   -1385.683263    

%%%% ELECTRONS %%%%%%%%%%%%%%%%%%%%%%%%%%%%%%%%%%%%%%%%%%%%%%%%%%%%%%%%%%%%%%%%%

 number of electrons        =             89

 total electronic charge    =     89.0000000

%%%% ELECTRONS %%%%%%%%%%%%%%%%%%%%%%%%%%%%%%%%%%%%%%%%%%%%%%%%%%%%%%%%%%%%%%%%%

 number of electrons        =             89

 total electronic charge    =     89.0000000

%%%% CHARGES %%%%%%%%%%%%%%%%%%%%%%%%%%%%%%%%%%%%%%%%%%%%%%%%%%%%%%%%%%%%%%%%%%%

 total number of charges    =             99

 total charge               =     -1.0000000

%%%% CHARGES %%%%%%%%%%%%%%%%%%%%%%%%%%%%%%%%%%%%%%%%%%%%%%%%%%%%%%%%%%%%%%%%%%%

 total number of charges    =             99

 total charge               =     -1.0000000

%%%% BOUNDARY %%%%%%%%%%%%%%%%%%%%%%%%%%%%%%%%%%%%%%%%%%%%%%%%%%%%%%%%%%%%%%%%%%

 boundary label             = solvent             
 boundary mode              = full                

 using the optimal SCCS function:
 rhomax                     =      0.0050000
 rhomin                     =      0.0001000

 volume of the QM region    =   1375.7216561

 surface of the QM region   =    268.0785956

%%%% DENSITY %%%%%%%%%%%%%%%%%%%%%%%%%%%%%%%%%%%%%%%%%%%%%%%%%%%%%%%%%%%%%%%%%%%

 density label              = vreference                                        

 integral of density        =  -0.8163495548E-12

%%%% COMPUTE ELECTROSTATIC POTENTIAL %%%%%%%%%%%%%%%%%%%%%%%%%%%%%%%%%%%%%%%%%%%

 Warning: Bad guess with residual norm =   0.740636E+04, reset to no guess

   i |      alpha     |       pAp      |      rzold     |    delta_qm    |    delta_en    |       tol
 ---------------------------------------------------------------------------------------------------------
   1 |   0.997795E+00 |   0.127292E+04 |   0.127011E+04 |   0.973814E-01 |   0.737409E+04 |   0.100000E-04
   2 |   0.307075E-01 |   0.213512E+04 |   0.655643E+02 |   0.914000E-01 |   0.649604E+04 |   0.100000E-04
   3 |   0.121276E+00 |   0.394479E+02 |   0.478408E+01 |   0.971735E-01 |   0.734264E+04 |   0.100000E-04
   4 |  -0.305258E+00 |  -0.289215E+01 |   0.882854E+00 |   0.534119E-01 |   0.221836E+04 |   0.100000E-04
   5 |  -0.465885E+00 |   0.146700E+01 |  -0.683451E+00 |   0.138258E-01 |   0.148641E+03 |   0.100000E-04
   6 |   0.326814E+00 |   0.691517E+00 |   0.225997E+00 |   0.437413E-02 |   0.148778E+02 |   0.100000E-04
   7 |   0.385381E+00 |   0.404351E-01 |   0.155829E-01 |   0.143472E-02 |   0.160062E+01 |   0.100000E-04
   8 |   0.429435E+00 |   0.458240E-02 |   0.196784E-02 |   0.924289E-03 |   0.664311E+00 |   0.100000E-04
   9 |   0.339151E+00 |   0.120739E-02 |   0.409489E-03 |   0.935474E-03 |   0.680487E+00 |   0.100000E-04
  10 |   0.523334E+00 |   0.278719E-03 |   0.145863E-03 |   0.811024E-03 |   0.511475E+00 |   0.100000E-04
  11 |   0.104508E+01 |   0.927443E-04 |   0.969248E-04 |   0.448862E-03 |   0.156669E+00 |   0.100000E-04
  12 |   0.527313E+00 |   0.184392E-03 |   0.972323E-04 |   0.519597E-03 |   0.209937E+00 |   0.100000E-04
  13 |   0.380095E-01 |   0.747154E-02 |   0.283990E-03 |   0.401054E-03 |   0.125073E+00 |   0.100000E-04
  14 |   0.522568E+00 |   0.833852E-04 |   0.435745E-04 |   0.431339E-03 |   0.144675E+00 |   0.100000E-04
  15 |   0.112174E+01 |   0.229773E-04 |   0.257746E-04 |   0.440284E-03 |   0.150738E+00 |   0.100000E-04
  16 |   0.920629E+00 |   0.715619E-04 |   0.658820E-04 |   0.531313E-03 |   0.219512E+00 |   0.100000E-04
  17 |   0.685891E+00 |   0.174279E-03 |   0.119536E-03 |   0.574122E-03 |   0.256310E+00 |   0.100000E-04
  18 |   0.509488E+00 |   0.289345E-03 |   0.147418E-03 |   0.350699E-03 |   0.956370E-01 |   0.100000E-04
  19 |   0.513091E+00 |   0.748885E-04 |   0.384246E-04 |   0.188387E-03 |   0.275967E-01 |   0.100000E-04
  20 |   0.546483E+00 |   0.130297E-04 |   0.712051E-05 |   0.129089E-03 |   0.129578E-01 |   0.100000E-04
  21 |   0.899979E+00 |   0.209682E-05 |   0.188709E-05 |   0.626242E-04 |   0.304958E-02 |   0.100000E-04
  22 |   0.605848E+00 |   0.182150E-05 |   0.110355E-05 |   0.360440E-04 |   0.101023E-02 |   0.100000E-04
  23 |   0.537363E-01 |   0.119825E-04 |   0.643894E-06 |   0.364171E-04 |   0.103126E-02 |   0.100000E-04
  24 |   0.290931E+00 |   0.178031E-05 |   0.517946E-06 |   0.257352E-04 |   0.515003E-03 |   0.100000E-04
  25 |   0.449455E+00 |   0.171689E-06 |   0.771664E-07 |   0.170518E-04 |   0.226099E-03 |   0.100000E-04
  26 |   0.265901E+00 |   0.332606E-06 |   0.884403E-07 |   0.105613E-04 |   0.867350E-04 |   0.100000E-04
  27 |   0.423593E+00 |   0.798998E-07 |   0.338450E-07 |   0.551495E-05 |   0.236505E-04 |   0.100000E-04
  28 |   0.614677E+00 |   0.160161E-07 |   0.984474E-08 |   0.241358E-05 |   0.452980E-05 |   0.100000E-04

 Charges are converged, EXIT

%%%% DENSITY %%%%%%%%%%%%%%%%%%%%%%%%%%%%%%%%%%%%%%%%%%%%%%%%%%%%%%%%%%%%%%%%%%%

 density label              = velectrostatic                                    

 integral of density        =   -1424.116021    

%%%% CHARGES %%%%%%%%%%%%%%%%%%%%%%%%%%%%%%%%%%%%%%%%%%%%%%%%%%%%%%%%%%%%%%%%%%%

 total number of charges    =             99

 total charge               =     -1.0000000

%%%% DENSITY %%%%%%%%%%%%%%%%%%%%%%%%%%%%%%%%%%%%%%%%%%%%%%%%%%%%%%%%%%%%%%%%%%%

 density label              = vsoftcavity                                       

 integral of density        =    38.43229076    

%%%% DENSITY %%%%%%%%%%%%%%%%%%%%%%%%%%%%%%%%%%%%%%%%%%%%%%%%%%%%%%%%%%%%%%%%%%%

 density label              = dvtot                                             

 integral of density        =   -1385.683730    

%%%% ELECTRONS %%%%%%%%%%%%%%%%%%%%%%%%%%%%%%%%%%%%%%%%%%%%%%%%%%%%%%%%%%%%%%%%%

 number of electrons        =             89

 total electronic charge    =     89.0000000

%%%% ELECTRONS %%%%%%%%%%%%%%%%%%%%%%%%%%%%%%%%%%%%%%%%%%%%%%%%%%%%%%%%%%%%%%%%%

 number of electrons        =             89

 total electronic charge    =     89.0000000

%%%% CHARGES %%%%%%%%%%%%%%%%%%%%%%%%%%%%%%%%%%%%%%%%%%%%%%%%%%%%%%%%%%%%%%%%%%%

 total number of charges    =             99

 total charge               =     -1.0000000

%%%% CHARGES %%%%%%%%%%%%%%%%%%%%%%%%%%%%%%%%%%%%%%%%%%%%%%%%%%%%%%%%%%%%%%%%%%%

 total number of charges    =             99

 total charge               =     -1.0000000

%%%% BOUNDARY %%%%%%%%%%%%%%%%%%%%%%%%%%%%%%%%%%%%%%%%%%%%%%%%%%%%%%%%%%%%%%%%%%

 boundary label             = solvent             
 boundary mode              = full                

 using the optimal SCCS function:
 rhomax                     =      0.0050000
 rhomin                     =      0.0001000

 volume of the QM region    =   1375.7280405

 surface of the QM region   =    268.0854648

%%%% DENSITY %%%%%%%%%%%%%%%%%%%%%%%%%%%%%%%%%%%%%%%%%%%%%%%%%%%%%%%%%%%%%%%%%%%

 density label              = vreference                                        

 integral of density        =  -0.4990146497E-12

%%%% COMPUTE ELECTROSTATIC POTENTIAL %%%%%%%%%%%%%%%%%%%%%%%%%%%%%%%%%%%%%%%%%%%

 Warning: Bad guess with residual norm =   0.741209E+04, reset to no guess

   i |      alpha     |       pAp      |      rzold     |    delta_qm    |    delta_en    |       tol
 ---------------------------------------------------------------------------------------------------------
   1 |   0.997792E+00 |   0.127292E+04 |   0.127011E+04 |   0.974188E-01 |   0.737976E+04 |   0.100000E-04
   2 |   0.307023E-01 |   0.213931E+04 |   0.656816E+02 |   0.914049E-01 |   0.649673E+04 |   0.100000E-04
   3 |   0.121299E+00 |   0.394312E+02 |   0.478295E+01 |   0.971884E-01 |   0.734489E+04 |   0.100000E-04
   4 |  -0.305191E+00 |  -0.289244E+01 |   0.882748E+00 |   0.534229E-01 |   0.221927E+04 |   0.100000E-04
   5 |  -0.465985E+00 |   0.146606E+01 |  -0.683162E+00 |   0.138346E-01 |   0.148831E+03 |   0.100000E-04
   6 |   0.326887E+00 |   0.691866E+00 |   0.226162E+00 |   0.437425E-02 |   0.148786E+02 |   0.100000E-04
   7 |   0.385316E+00 |   0.404636E-01 |   0.155913E-01 |   0.143518E-02 |   0.160165E+01 |   0.100000E-04
   8 |   0.429291E+00 |   0.458788E-02 |   0.196954E-02 |   0.924489E-03 |   0.664599E+00 |   0.100000E-04
   9 |   0.339020E+00 |   0.120996E-02 |   0.410200E-03 |   0.935928E-03 |   0.681147E+00 |   0.100000E-04
  10 |   0.523648E+00 |   0.278804E-03 |   0.145995E-03 |   0.811475E-03 |   0.512043E+00 |   0.100000E-04
  11 |   0.104546E+01 |   0.928167E-04 |   0.970358E-04 |   0.454784E-03 |   0.160830E+00 |   0.100000E-04
  12 |   0.609709E+00 |   0.158660E-03 |   0.967364E-04 |   0.446727E-03 |   0.155182E+00 |   0.100000E-04
  13 |   0.728029E-01 |   0.900185E-03 |   0.655361E-04 |   0.367998E-03 |   0.105305E+00 |   0.100000E-04
  14 |   0.235497E+00 |   0.382677E-03 |   0.901191E-04 |   0.433273E-03 |   0.145976E+00 |   0.100000E-04
  15 |   0.108515E+01 |   0.240281E-04 |   0.260742E-04 |   0.440299E-03 |   0.150748E+00 |   0.100000E-04
  16 |   0.899205E+00 |   0.734606E-04 |   0.660562E-04 |   0.526908E-03 |   0.215887E+00 |   0.100000E-04
  17 |   0.692233E+00 |   0.172133E-03 |   0.119156E-03 |   0.578382E-03 |   0.260127E+00 |   0.100000E-04
  18 |   0.532614E+00 |   0.271951E-03 |   0.144845E-03 |   0.351571E-03 |   0.961133E-01 |   0.100000E-04
  19 |   0.515350E+00 |   0.744997E-04 |   0.383934E-04 |   0.188620E-03 |   0.276652E-01 |   0.100000E-04
  20 |   0.546969E+00 |   0.130341E-04 |   0.712926E-05 |   0.129246E-03 |   0.129894E-01 |   0.100000E-04
  21 |   0.900079E+00 |   0.210259E-05 |   0.189249E-05 |   0.627616E-04 |   0.306298E-02 |   0.100000E-04
  22 |   0.613517E+00 |   0.180427E-05 |   0.110695E-05 |   0.365359E-04 |   0.103799E-02 |   0.100000E-04
  23 |   0.424763E+00 |   0.779566E-06 |   0.331130E-06 |   0.306133E-04 |   0.728747E-03 |   0.100000E-04
  24 |   0.389488E-01 |   0.207658E-04 |   0.808801E-06 |   0.260597E-04 |   0.528074E-03 |   0.100000E-04
  25 |   0.218290E+00 |   0.585540E-06 |   0.127818E-06 |   0.207609E-04 |   0.335156E-03 |   0.100000E-04
  26 |   0.452291E+00 |   0.170666E-06 |   0.771909E-07 |   0.106636E-04 |   0.884235E-04 |   0.100000E-04
  27 |   0.475500E+00 |   0.663450E-07 |   0.315471E-07 |   0.573496E-05 |   0.255751E-04 |   0.100000E-04
  28 |   0.612490E+00 |   0.159177E-07 |   0.974940E-08 |   0.268510E-05 |   0.560632E-05 |   0.100000E-04

 Charges are converged, EXIT

%%%% DENSITY %%%%%%%%%%%%%%%%%%%%%%%%%%%%%%%%%%%%%%%%%%%%%%%%%%%%%%%%%%%%%%%%%%%

 density label              = velectrostatic                                    

 integral of density        =   -1424.143649    

%%%% CHARGES %%%%%%%%%%%%%%%%%%%%%%%%%%%%%%%%%%%%%%%%%%%%%%%%%%%%%%%%%%%%%%%%%%%

 total number of charges    =             99

 total charge               =     -1.0000000

%%%% DENSITY %%%%%%%%%%%%%%%%%%%%%%%%%%%%%%%%%%%%%%%%%%%%%%%%%%%%%%%%%%%%%%%%%%%

 density label              = vsoftcavity                                       

 integral of density        =    38.44034058    

%%%% DENSITY %%%%%%%%%%%%%%%%%%%%%%%%%%%%%%%%%%%%%%%%%%%%%%%%%%%%%%%%%%%%%%%%%%%

 density label              = dvtot                                             

 integral of density        =   -1385.703308    

%%%% ELECTRONS %%%%%%%%%%%%%%%%%%%%%%%%%%%%%%%%%%%%%%%%%%%%%%%%%%%%%%%%%%%%%%%%%

 number of electrons        =             89

 total electronic charge    =     89.0000000

%%%% ELECTRONS %%%%%%%%%%%%%%%%%%%%%%%%%%%%%%%%%%%%%%%%%%%%%%%%%%%%%%%%%%%%%%%%%

 number of electrons        =             89

 total electronic charge    =     89.0000000

%%%% CHARGES %%%%%%%%%%%%%%%%%%%%%%%%%%%%%%%%%%%%%%%%%%%%%%%%%%%%%%%%%%%%%%%%%%%

 total number of charges    =             99

 total charge               =     -1.0000000

%%%% CHARGES %%%%%%%%%%%%%%%%%%%%%%%%%%%%%%%%%%%%%%%%%%%%%%%%%%%%%%%%%%%%%%%%%%%

 total number of charges    =             99

 total charge               =     -1.0000000

%%%% BOUNDARY %%%%%%%%%%%%%%%%%%%%%%%%%%%%%%%%%%%%%%%%%%%%%%%%%%%%%%%%%%%%%%%%%%

 boundary label             = solvent             
 boundary mode              = full                

 using the optimal SCCS function:
 rhomax                     =      0.0050000
 rhomin                     =      0.0001000

 volume of the QM region    =   1375.7297836

 surface of the QM region   =    268.0939975

%%%% DENSITY %%%%%%%%%%%%%%%%%%%%%%%%%%%%%%%%%%%%%%%%%%%%%%%%%%%%%%%%%%%%%%%%%%%

 density label              = vreference                                        

 integral of density        =  -0.1173291701E-11

%%%% COMPUTE ELECTROSTATIC POTENTIAL %%%%%%%%%%%%%%%%%%%%%%%%%%%%%%%%%%%%%%%%%%%

 Warning: Bad guess with residual norm =   0.741672E+04, reset to no guess

   i |      alpha     |       pAp      |      rzold     |    delta_qm    |    delta_en    |       tol
 ---------------------------------------------------------------------------------------------------------
   1 |   0.997791E+00 |   0.127292E+04 |   0.127011E+04 |   0.974492E-01 |   0.738435E+04 |   0.100000E-04
   2 |   0.306996E-01 |   0.214121E+04 |   0.657344E+02 |   0.914229E-01 |   0.649930E+04 |   0.100000E-04
   3 |   0.121312E+00 |   0.394233E+02 |   0.478252E+01 |   0.972104E-01 |   0.734821E+04 |   0.100000E-04
   4 |  -0.305216E+00 |  -0.289259E+01 |   0.882863E+00 |   0.534285E-01 |   0.221974E+04 |   0.100000E-04
   5 |  -0.465807E+00 |   0.146666E+01 |  -0.683178E+00 |   0.138499E-01 |   0.149159E+03 |   0.100000E-04
   6 |   0.326925E+00 |   0.693277E+00 |   0.226649E+00 |   0.437641E-02 |   0.148933E+02 |   0.100000E-04
   7 |   0.385316E+00 |   0.404898E-01 |   0.156014E-01 |   0.143582E-02 |   0.160307E+01 |   0.100000E-04
   8 |   0.429124E+00 |   0.459427E-02 |   0.197151E-02 |   0.924955E-03 |   0.665270E+00 |   0.100000E-04
   9 |   0.339059E+00 |   0.121190E-02 |   0.410907E-03 |   0.936633E-03 |   0.682174E+00 |   0.100000E-04
  10 |   0.523728E+00 |   0.279080E-03 |   0.146162E-03 |   0.812260E-03 |   0.513034E+00 |   0.100000E-04
  11 |   0.104443E+01 |   0.930920E-04 |   0.972281E-04 |   0.456869E-03 |   0.162308E+00 |   0.100000E-04
  12 |   0.615360E+00 |   0.157744E-03 |   0.970692E-04 |   0.428312E-03 |   0.142651E+00 |   0.100000E-04
  13 |   0.212828E+00 |   0.217937E-03 |   0.463831E-04 |   0.338297E-03 |   0.889922E-01 |   0.100000E-04
  14 |   0.806751E-01 |   0.240476E-02 |   0.194004E-03 |   0.436422E-03 |   0.148105E+00 |   0.100000E-04
  15 |   0.105541E+01 |   0.251854E-04 |   0.265808E-04 |   0.440553E-03 |   0.150922E+00 |   0.100000E-04
  16 |   0.896012E+00 |   0.737031E-04 |   0.660388E-04 |   0.525782E-03 |   0.214965E+00 |   0.100000E-04
  17 |   0.693950E+00 |   0.171818E-03 |   0.119233E-03 |   0.580256E-03 |   0.261816E+00 |   0.100000E-04
  18 |   0.541662E+00 |   0.266310E-03 |   0.144250E-03 |   0.352633E-03 |   0.966948E-01 |   0.100000E-04
  19 |   0.516503E+00 |   0.744497E-04 |   0.384535E-04 |   0.188873E-03 |   0.277393E-01 |   0.100000E-04
  20 |   0.547338E+00 |   0.130498E-04 |   0.714266E-05 |   0.129447E-03 |   0.130298E-01 |   0.100000E-04
  21 |   0.899746E+00 |   0.210901E-05 |   0.189757E-05 |   0.627504E-04 |   0.306189E-02 |   0.100000E-04
  22 |   0.614101E+00 |   0.180692E-05 |   0.110963E-05 |   0.366168E-04 |   0.104260E-02 |   0.100000E-04
  23 |   0.518416E+00 |   0.625160E-06 |   0.324093E-06 |   0.269461E-04 |   0.564608E-03 |   0.100000E-04
  24 |   0.135129E+00 |   0.940518E-06 |   0.127091E-06 |   0.231445E-04 |   0.416534E-03 |   0.100000E-04
  25 |   0.713048E-01 |   0.363914E-05 |   0.259488E-06 |   0.202452E-04 |   0.318715E-03 |   0.100000E-04
  26 |   0.335431E+00 |   0.276882E-06 |   0.928748E-07 |   0.103773E-04 |   0.837392E-04 |   0.100000E-04
  27 |   0.464183E+00 |   0.691285E-07 |   0.320883E-07 |   0.568911E-05 |   0.251678E-04 |   0.100000E-04
  28 |   0.611836E+00 |   0.159884E-07 |   0.978230E-08 |   0.251173E-05 |   0.490571E-05 |   0.100000E-04

 Charges are converged, EXIT

%%%% DENSITY %%%%%%%%%%%%%%%%%%%%%%%%%%%%%%%%%%%%%%%%%%%%%%%%%%%%%%%%%%%%%%%%%%%

 density label              = velectrostatic                                    

 integral of density        =   -1424.152292    

%%%% CHARGES %%%%%%%%%%%%%%%%%%%%%%%%%%%%%%%%%%%%%%%%%%%%%%%%%%%%%%%%%%%%%%%%%%%

 total number of charges    =             99

 total charge               =     -1.0000000

%%%% DENSITY %%%%%%%%%%%%%%%%%%%%%%%%%%%%%%%%%%%%%%%%%%%%%%%%%%%%%%%%%%%%%%%%%%%

 density label              = vsoftcavity                                       

 integral of density        =    38.44830189    

%%%% DENSITY %%%%%%%%%%%%%%%%%%%%%%%%%%%%%%%%%%%%%%%%%%%%%%%%%%%%%%%%%%%%%%%%%%%

 density label              = dvtot                                             

 integral of density        =   -1385.703990    

%%%% ELECTRONS %%%%%%%%%%%%%%%%%%%%%%%%%%%%%%%%%%%%%%%%%%%%%%%%%%%%%%%%%%%%%%%%%

 number of electrons        =             89

 total electronic charge    =     89.0000000

%%%% ELECTRONS %%%%%%%%%%%%%%%%%%%%%%%%%%%%%%%%%%%%%%%%%%%%%%%%%%%%%%%%%%%%%%%%%

 number of electrons        =             89

 total electronic charge    =     89.0000000

%%%% CHARGES %%%%%%%%%%%%%%%%%%%%%%%%%%%%%%%%%%%%%%%%%%%%%%%%%%%%%%%%%%%%%%%%%%%

 total number of charges    =             99

 total charge               =     -1.0000000

%%%% CHARGES %%%%%%%%%%%%%%%%%%%%%%%%%%%%%%%%%%%%%%%%%%%%%%%%%%%%%%%%%%%%%%%%%%%

 total number of charges    =             99

 total charge               =     -1.0000000

%%%% BOUNDARY %%%%%%%%%%%%%%%%%%%%%%%%%%%%%%%%%%%%%%%%%%%%%%%%%%%%%%%%%%%%%%%%%%

 boundary label             = solvent             
 boundary mode              = full                

 using the optimal SCCS function:
 rhomax                     =      0.0050000
 rhomin                     =      0.0001000

 volume of the QM region    =   1375.7297836

 surface of the QM region   =    268.0939975

%%%% DENSITY %%%%%%%%%%%%%%%%%%%%%%%%%%%%%%%%%%%%%%%%%%%%%%%%%%%%%%%%%%%%%%%%%%%

 density label              = dvtot                                             

 integral of density        =   -1385.703990    

%%%% DENSITY %%%%%%%%%%%%%%%%%%%%%%%%%%%%%%%%%%%%%%%%%%%%%%%%%%%%%%%%%%%%%%%%%%%

 density label              = vreference                                        

 integral of density        =  -0.1173291701E-11

%%%% DENSITY %%%%%%%%%%%%%%%%%%%%%%%%%%%%%%%%%%%%%%%%%%%%%%%%%%%%%%%%%%%%%%%%%%%

 density label              = velectrostatic                                    

 integral of density        =   -1424.152292    

%%%% CHARGES %%%%%%%%%%%%%%%%%%%%%%%%%%%%%%%%%%%%%%%%%%%%%%%%%%%%%%%%%%%%%%%%%%%

 total number of charges    =             99

 total charge               =     -1.0000000

%%%% DENSITY %%%%%%%%%%%%%%%%%%%%%%%%%%%%%%%%%%%%%%%%%%%%%%%%%%%%%%%%%%%%%%%%%%%

 density label              = vsoftcavity                                       

 integral of density        =    38.44830189    
