
     Program PWSCF v.6.1 (svn rev. 13369) starts on  1Feb2018 at 12:34:55 

     This program is part of the open-source Quantum ESPRESSO suite
     for quantum simulation of materials; please cite
         "P. Giannozzi et al., J. Phys.:Condens. Matter 21 395502 (2009);
          URL http://www.quantum-espresso.org", 
     in publications or presentations arising from this work. More details at
     http://www.quantum-espresso.org/quote

     Parallel version (MPI), running on     1 processors
     Reading input from charged.in

     Current dimensions of program PWSCF are:
     Max number of different atomic species (ntypx) = 10
     Max number of k-points (npk) =  40000
     Max angular momentum in pseudopotentials (lmaxx) =  3
               file C.pbe-rrkjus.UPF: wavefunction(s)  2S 2P renormalized
               file O.pbe-rrkjus.UPF: wavefunction(s)  2S renormalized

     gamma-point specific algorithms are used

     Subspace diagonalization in iterative solution of the eigenvalue problem:
     a serial algorithm will be used

 
     G-vector sticks info
     --------------------
     sticks:   dense  smooth     PW     G-vecs:    dense   smooth      PW
     Sum        2357    1099    269               366833   116965   14571
 


     bravais-lattice index     =            8
     lattice parameter (alat)  =      10.6881  a.u.
     unit-cell volume          =    4181.1215 (a.u.)^3
     number of atoms/cell      =           10
     number of atomic types    =            3
     number of electrons       =        89.00
     number of Kohn-Sham states=           80
     kinetic-energy cutoff     =      35.0000  Ry
     charge density cutoff     =     300.0000  Ry
     convergence threshold     =      5.0E-03
     mixing beta               =       0.7000
     number of iterations used =            8  plain     mixing
     Exchange-correlation      = PBE ( 1  4  3  4 0 0)
 

     Environ Module
     ==============

     Plese cite
         O. Andreussi, I. Dabo and N. Marzari, J. Chem. Phys. 136, 064102 (2012)         
     in publications or presentations arising from this work.

     compensation onset threshold      =               0.1000E+03 
     static permittivity               =                   100.00 
     epsilon calculation mode          =                     full 

     Electrostatic Setup
     -------------------
     electrostatic problem to solve    = generalized              
     numerical solver adopted          = cg                       
     type of auxiliary density adopted = none                     
     type of core tool for poisson     = fft                      
     type of core tool for s(r) deriv  = analytic                 



     celldm(1)=  10.688100  celldm(2)=   0.866025  celldm(3)=   3.954220
     celldm(4)=   0.000000  celldm(5)=   0.000000  celldm(6)=   0.000000

     crystal axes: (cart. coord. in units of alat)
               a(1) = (   1.000000   0.000000   0.000000 )  
               a(2) = (   0.000000   0.866025   0.000000 )  
               a(3) = (   0.000000   0.000000   3.954220 )  

     reciprocal axes: (cart. coord. in units 2 pi/alat)
               b(1) = (  1.000000  0.000000  0.000000 )  
               b(2) = (  0.000000  1.154701  0.000000 )  
               b(3) = (  0.000000  0.000000  0.252894 )  


     PseudoPot. # 1 for C  read from file:
     /home/fnattino/Programs/qe-6.1/Environ/tests/../..//pseudo/C.pbe-rrkjus.UPF
     MD5 check sum: 00fb224312de0c5b6853bd333518df6f
     Pseudo is Ultrasoft, Zval =  4.0
     Generated by new atomic code, or converted to UPF format
     Using radial grid of  627 points,  4 beta functions with: 
                l(1) =   0
                l(2) =   0
                l(3) =   1
                l(4) =   1
     Q(r) pseudized with 0 coefficients 


     PseudoPot. # 2 for O  read from file:
     /home/fnattino/Programs/qe-6.1/Environ/tests/../..//pseudo/O.pbe-rrkjus.UPF
     MD5 check sum: 390ba29e75625707450f3bd3f0eb6be9
     Pseudo is Ultrasoft, Zval =  6.0
     Generated by new atomic code, or converted to UPF format
     Using radial grid of 1269 points,  4 beta functions with: 
                l(1) =   0
                l(2) =   0
                l(3) =   1
                l(4) =   1
     Q(r) pseudized with 0 coefficients 


     PseudoPot. # 3 for Pt read from file:
     /home/fnattino/Programs/qe-6.1/Environ/tests/../..//pseudo/Pt.pbe-n-rrkjus_psl.0.1.UPF
     MD5 check sum: df5be8f5ed4f66d4aed38ca70ec8d507
     Pseudo is Ultrasoft + core correction, Zval = 10.0
     Generated using "atomic" code by A. Dal Corso  v.5.0.2 svn rev. 9415
     Using radial grid of 1277 points,  6 beta functions with: 
                l(1) =   0
                l(2) =   0
                l(3) =   1
                l(4) =   1
                l(5) =   2
                l(6) =   2
     Q(r) pseudized with 0 coefficients 


     atomic species   valence    mass     pseudopotential
        C              4.00     1.00000     C ( 1.00)
        O              6.00     1.00000     O ( 1.00)
        Pt            10.00     1.00000     Pt( 1.00)

     No symmetry found



   Cartesian axes

     site n.     atom                  positions (alat units)
         1           C   tau(   1) = (   0.4991611   0.4347567   1.2070461  )
         2           O   tau(   2) = (   0.4991542   0.4322212   1.4109013  )
         3           Pt  tau(   3) = (   0.7542339   0.0091745   0.8413229  )
         4           Pt  tau(   4) = (   0.2441023   0.0091745   0.8413226  )
         5           Pt  tau(   5) = (   0.0000034   0.4416918   0.8391348  )
         6           Pt  tau(   6) = (   0.4991682   0.4417635   0.8776299  )
         7           Pt  tau(   7) = (   0.0000038   0.7300598   0.4308181  )
         8           Pt  tau(   8) = (   0.4991683   0.7202168   0.4447460  )
         9           Pt  tau(   9) = (   0.2524172   0.2949237   0.4386572  )
        10           Pt  tau(  10) = (   0.7459196   0.2949237   0.4386575  )

     number of k points=     1  Marzari-Vanderbilt smearing, width (Ry)=  0.0300
                       cart. coord. in units 2pi/alat
        k(    1) = (   0.0000000   0.0000000   0.0000000), wk =   2.0000000

     Dense  grid:   183417 G-vectors     FFT dimensions: (  60,  54, 240)

     Smooth grid:    58483 G-vectors     FFT dimensions: (  45,  36, 160)

     Estimated max dynamical RAM per process >     231.32MB

     Initial potential from superposition of free atoms
     Check: negative starting charge=   -0.003086

     starting charge   89.99859, renormalised to   89.00000

     negative rho (up, down):  3.052E-03 0.000E+00
     Starting wfc are   80 randomized atomic wfcs

     total cpu time spent up to now is        5.8 secs

     per-process dynamical memory:   335.7 Mb

     Self-consistent Calculation

     iteration #  1     ecut=    35.00 Ry     beta=0.70
     Davidson diagonalization with overlap
     ethr =  1.00E-02,  avg # of iterations =  5.0

     negative rho (up, down):  2.890E-03 0.000E+00

     add environment contribution to local potential
     polarization accuracy = 8.0E-06, # of iterations =  26

     total cpu time spent up to now is       10.1 secs

     total energy              =    -622.68827052 Ry
     Harris-Foulkes estimate   =    -624.21132537 Ry
     estimated scf accuracy    <       1.86639615 Ry
     electrostatic embedding   =       0.03381190 Ry
     correction to one-el term =       0.00000000 Ry

     iteration #  2     ecut=    35.00 Ry     beta=0.70
     Davidson diagonalization with overlap
     ethr =  2.10E-03,  avg # of iterations =  8.0

     negative rho (up, down):  2.113E-02 0.000E+00

     add environment contribution to local potential
     polarization accuracy = 5.5E-06, # of iterations =  40

     total cpu time spent up to now is       15.7 secs

     total energy              =    -617.98638138 Ry
     Harris-Foulkes estimate   =    -635.99363634 Ry
     estimated scf accuracy    <      48.53765425 Ry
     electrostatic embedding   =       0.01313422 Ry
     correction to one-el term =       8.95888268 Ry

     iteration #  3     ecut=    35.00 Ry     beta=0.70
     Davidson diagonalization with overlap
     ethr =  2.10E-03,  avg # of iterations =  3.0

     negative rho (up, down):  7.469E-03 0.000E+00

     add environment contribution to local potential
     polarization accuracy = 4.6E-06, # of iterations =  27

     total cpu time spent up to now is       20.0 secs

     total energy              =    -623.27983871 Ry
     Harris-Foulkes estimate   =    -633.13739836 Ry
     estimated scf accuracy    <       3.03598221 Ry
     electrostatic embedding   =       0.20825203 Ry
     correction to one-el term =       9.04372816 Ry

     iteration #  4     ecut=    35.00 Ry     beta=0.70
     Davidson diagonalization with overlap
     ethr =  2.10E-03,  avg # of iterations =  2.0

     negative rho (up, down):  1.034E-02 0.000E+00

     add environment contribution to local potential
     polarization accuracy = 4.9E-06, # of iterations =  32

     total cpu time spent up to now is       24.5 secs

     total energy              =    -623.59728279 Ry
     Harris-Foulkes estimate   =    -634.43541773 Ry
     estimated scf accuracy    <       1.87838134 Ry
     electrostatic embedding   =       0.21541043 Ry
     correction to one-el term =      10.30047717 Ry

     iteration #  5     ecut=    35.00 Ry     beta=0.70
     Davidson diagonalization with overlap
     ethr =  2.10E-03,  avg # of iterations =  1.0

     negative rho (up, down):  1.026E-02 0.000E+00

     add environment contribution to local potential
     polarization accuracy = 8.6E-06, # of iterations =  33

     total cpu time spent up to now is       29.0 secs

     total energy              =    -623.68712455 Ry
     Harris-Foulkes estimate   =    -633.74499243 Ry
     estimated scf accuracy    <       0.41262324 Ry
     electrostatic embedding   =       0.21554508 Ry
     correction to one-el term =       9.79820628 Ry

     iteration #  6     ecut=    35.00 Ry     beta=0.70
     Davidson diagonalization with overlap
     ethr =  4.64E-04,  avg # of iterations =  1.0

     negative rho (up, down):  6.941E-03 0.000E+00

     add environment contribution to local potential
     polarization accuracy = 4.7E-06, # of iterations =  32

     total cpu time spent up to now is       33.5 secs

     total energy              =    -623.68266366 Ry
     Harris-Foulkes estimate   =    -633.09681770 Ry
     estimated scf accuracy    <       0.25973918 Ry
     electrostatic embedding   =       0.21026978 Ry
     correction to one-el term =       9.17594628 Ry

     iteration #  7     ecut=    35.00 Ry     beta=0.70
     Davidson diagonalization with overlap
     ethr =  2.92E-04,  avg # of iterations =  1.0

     negative rho (up, down):  4.898E-03 0.000E+00

     add environment contribution to local potential
     polarization accuracy = 6.7E-06, # of iterations =  28

     total cpu time spent up to now is       37.7 secs

     total energy              =    -623.68776904 Ry
     Harris-Foulkes estimate   =    -632.57757556 Ry
     estimated scf accuracy    <       0.05481409 Ry
     electrostatic embedding   =       0.20676686 Ry
     correction to one-el term =       8.66861775 Ry

     iteration #  8     ecut=    35.00 Ry     beta=0.70
     Davidson diagonalization with overlap
     ethr =  6.16E-05,  avg # of iterations = 12.0

     negative rho (up, down):  4.122E-03 0.000E+00

     add environment contribution to local potential
     polarization accuracy = 7.5E-06, # of iterations =  29

     total cpu time spent up to now is       42.2 secs

     total energy              =    -623.69187183 Ry
     Harris-Foulkes estimate   =    -632.10818277 Ry
     estimated scf accuracy    <       0.05464351 Ry
     electrostatic embedding   =       0.20282518 Ry
     correction to one-el term =       8.20576332 Ry

     iteration #  9     ecut=    35.00 Ry     beta=0.70
     Davidson diagonalization with overlap
     ethr =  6.14E-05,  avg # of iterations =  1.0

     negative rho (up, down):  3.788E-03 0.000E+00

     add environment contribution to local potential
     polarization accuracy = 7.6E-06, # of iterations =  28

     total cpu time spent up to now is       46.4 secs

     total energy              =    -623.69465872 Ry
     Harris-Foulkes estimate   =    -631.97455210 Ry
     estimated scf accuracy    <       0.02962031 Ry
     electrostatic embedding   =       0.20093156 Ry
     correction to one-el term =       8.07432033 Ry

     iteration # 10     ecut=    35.00 Ry     beta=0.70
     Davidson diagonalization with overlap
     ethr =  3.33E-05,  avg # of iterations =  1.0

     negative rho (up, down):  3.553E-03 0.000E+00

     total cpu time spent up to now is       48.4 secs

     End of self-consistent calculation

          k = 0.0000 0.0000 0.0000 (  7286 PWs)   bands (ev):

   -29.5494 -16.0402 -14.3646 -13.1935 -12.9042 -12.3874 -12.3759 -12.1881
   -12.0231 -11.1795 -11.0424 -10.9327 -10.7029 -10.6586 -10.5932 -10.4508
    -9.7790  -9.7365  -9.6826  -9.4795  -9.4255  -9.3802  -9.3416  -9.2963
    -9.2865  -9.0992  -9.0856  -8.9921  -8.8838  -8.6480  -8.5338  -7.7958
    -7.6644  -7.4021  -7.1469  -7.1226  -7.0561  -6.8874  -6.7230  -6.6014
    -6.4198  -6.4179  -6.2077  -6.1739  -6.1282  -5.9629  -5.8169  -4.7476
    -4.4267  -4.3524  -3.7723  -3.0969  -2.9605  -2.0020  -1.6742  -1.5835
    -0.2317  -0.0837   0.0184   0.3469   0.8168   1.2074   1.3761   1.4526
     2.2925   2.5147   2.6764   2.8629   2.9821   3.3007   4.1814   4.5453
     4.6324   4.7027   4.9485   5.2849   5.3847   5.4412   5.5600   5.6453

     the Fermi energy is    -6.0423 ev

!    total energy              =    -623.69660165 Ry
     Harris-Foulkes estimate   =    -631.82953793 Ry
     estimated scf accuracy    <       0.00068515 Ry

     The total energy is the sum of the following terms:

     one-electron contribution =   -3947.10272590 Ry
     hartree contribution      =    2004.81665980 Ry
     xc contribution           =    -262.74611672 Ry
     ewald contribution        =    1573.20467954 Ry
     smearing contrib. (-TS)   =      -0.00143614 Ry
     electrostatic embedding   =       0.19965635 Ry
     correction to one-el term =       7.93268143 Ry

     the Fermi energy shift due to the parabolic pbc-correction is    -0.4600 ev

     convergence has been achieved in  10 iterations

     negative rho (up, down):  3.553E-03 0.000E+00

     Forces acting on atoms (cartesian axes, Ry/au):

     atom    1 type  1   force =    -0.00003796   -0.00401489    0.06687589
     atom    2 type  2   force =    -0.00009125    0.00119504   -0.03800657
     atom    3 type  3   force =     0.00241895    0.01277211    0.02381926
     atom    4 type  3   force =    -0.00132076    0.01296855    0.02423846
     atom    5 type  3   force =    -0.00164497    0.01210965   -0.01470599
     atom    6 type  3   force =     0.00066963    0.00831561    0.04338402
     atom    7 type  3   force =    -0.00153839   -0.01366039   -0.03239215
     atom    8 type  3   force =     0.00044122   -0.02202545   -0.01584556
     atom    9 type  3   force =     0.01673738   -0.00400796   -0.02879462
     atom   10 type  3   force =    -0.01563385   -0.00365228   -0.02857275

     Total force =     0.117982     Total SCF correction =     0.104832
     SCF correction compared to forces is large: reduce conv_thr to get better values

     Writing output data file pwscf.save
 
     init_run     :      5.32s CPU      5.45s WALL (       1 calls)
     electrons    :     41.17s CPU     42.69s WALL (       1 calls)
     forces       :      3.32s CPU      3.40s WALL (       1 calls)

     Called by init_run:
     wfcinit      :      0.20s CPU      0.21s WALL (       1 calls)
     potinit      :      1.52s CPU      1.53s WALL (       1 calls)

     Called by electrons:
     c_bands      :      6.01s CPU      6.12s WALL (      10 calls)
     sum_band     :      6.34s CPU      6.88s WALL (      10 calls)
     v_of_rho     :      2.82s CPU      2.91s WALL (      11 calls)
     newd         :      4.03s CPU      4.72s WALL (      11 calls)
     mix_rho      :      0.25s CPU      0.24s WALL (      10 calls)

     Called by c_bands:
     init_us_2    :      0.08s CPU      0.10s WALL (      21 calls)
     regterg      :      5.37s CPU      5.47s WALL (      10 calls)

     Called by sum_band:
     sum_band:bec :      0.00s CPU      0.00s WALL (      10 calls)
     addusdens    :      5.12s CPU      5.65s WALL (      10 calls)

     Called by *egterg:
     h_psi        :      3.84s CPU      3.86s WALL (      46 calls)
     s_psi        :      0.28s CPU      0.27s WALL (      46 calls)
     g_psi        :      0.04s CPU      0.05s WALL (      35 calls)
     rdiaghg      :      0.33s CPU      0.33s WALL (      45 calls)

     Called by h_psi:
     h_psi:pot    :      3.78s CPU      3.82s WALL (      46 calls)
     h_psi:calbec :      0.27s CPU      0.26s WALL (      46 calls)
     vloc_psi     :      3.28s CPU      3.29s WALL (      46 calls)
     add_vuspsi   :      0.23s CPU      0.26s WALL (      46 calls)

     General routines
     calbec       :      0.40s CPU      0.39s WALL (      60 calls)
     fft          :      6.44s CPU      6.43s WALL (     910 calls)
     ffts         :      0.04s CPU      0.04s WALL (      21 calls)
     fftw         :      3.02s CPU      3.01s WALL (    2388 calls)
     interpolate  :      0.24s CPU      0.26s WALL (      21 calls)
     davcio       :      0.00s CPU      0.00s WALL (       1 calls)
 
     Parallel routines
     fft_scatter  :      1.76s CPU      1.79s WALL (    3319 calls)
 
     Environ routines
     calc_eelect  :      0.01s CPU      0.01s WALL (      20 calls)
     calc_velect  :     19.32s CPU     19.37s WALL (      18 calls)
     dielectric   :      0.26s CPU      0.25s WALL (      13 calls)
     calc_felect  :      0.07s CPU      0.07s WALL (       1 calls)
 
     PWSCF        :    50.17s CPU        51.91s WALL

 
   This run was terminated on:  12:35:47   1Feb2018            

=------------------------------------------------------------------------------=
   JOB DONE.
=------------------------------------------------------------------------------=

%%%% IONS %%%%%%%%%%%%%%%%%%%%%%%%%%%%%%%%%%%%%%%%%%%%%%%%%%%%%%%%%%%%%%%%%%%%%%
 number of ions             =         10
 ionic center of charge     =      0.3882415     0.3750182     0.7201831
 total ionic charge         =    -90.0000000
 ionic dipole               =      0.0000000     0.0000000     0.0000000
 ionic quadrupole (pc)      =   -730.5101255  -614.6110457  -876.7220256
 ionic quadrupole (gauss)   =   -741.7601255  -625.8610457  -887.9720256
 ion   1 type =  1 coordinates =      5.3350841     4.6467234    12.9010299
 ion   2 type =  2 coordinates =      5.3350096     4.6196233    15.0798543
 ion   3 type =  3 coordinates =      8.0613271     0.0980580     8.9921429
 ion   4 type =  3 coordinates =      2.6089894     0.0980583     8.9921406
 ion   5 type =  3 coordinates =      0.0000366     4.7208463     8.9687569
 ion   6 type =  3 coordinates =      5.3351596     4.7216127     9.3801964
 ion   7 type =  3 coordinates =      0.0000411     7.8029520     4.6046265
 ion   8 type =  3 coordinates =      5.3351612     7.6977491     4.7534894
 ion   9 type =  3 coordinates =      2.6978606     3.1521739     4.6884123
 ion  10 type =  3 coordinates =      7.9724637     3.1521745     4.6884152

%%%% SYSTEM %%%%%%%%%%%%%%%%%%%%%%%%%%%%%%%%%%%%%%%%%%%%%%%%%%%%%%%%%%%%%%%%%%%%
 system is built from all present ionic types
 system defined dimension   =  0 
 system defined axis        =  3 
 system center              =      0.3882415     0.3750182     0.7201831 
 system width               =      0.7019013 

%%%% ELECTRONS %%%%%%%%%%%%%%%%%%%%%%%%%%%%%%%%%%%%%%%%%%%%%%%%%%%%%%%%%%%%%%%%%
 number of electrons        =         88
 total electronic charge    =     89.0000000
 number of spin components  =  1

%%%% BOUNDARY %%%%%%%%%%%%%%%%%%%%%%%%%%%%%%%%%%%%%%%%%%%%%%%%%%%%%%%%%%%%%%%%%%
 boundary mode              = full                 
 boundary is built as a function of a smooth density
 function type              =  2 
 using the modified SCCS function with parameters 
 rhomax                     =      0.0050000 
 rhomin                     =      0.0001000 
 volume of the QM region    =   1610.6621773 
 surface of the QM region   =    255.0444501 

%%%% DIELECTRIC %%%%%%%%%%%%%%%%%%%%%%%%%%%%%%%%%%%%%%%%%%%%%%%%%%%%%%%%%%%%%%%%%
 dielectric build on homogeneous background
 environment bulk permitt.  =    100.0000000 
 dielectric flags
 need gradient              =  F 
 need factor depend. sqrt   =  T 
 total dielectric charge    =      0.0000000

%%%% ELECTRONS %%%%%%%%%%%%%%%%%%%%%%%%%%%%%%%%%%%%%%%%%%%%%%%%%%%%%%%%%%%%%%%%%
 number of electrons        =         89
 total electronic charge    =     89.0000000
 number of spin components  =  1

%%%% BOUNDARY %%%%%%%%%%%%%%%%%%%%%%%%%%%%%%%%%%%%%%%%%%%%%%%%%%%%%%%%%%%%%%%%%%
 boundary mode              = full                 
 boundary is built as a function of a smooth density
 function type              =  2 
 using the modified SCCS function with parameters 
 rhomax                     =      0.0050000 
 rhomin                     =      0.0001000 
 volume of the QM region    =   1500.3587997 
 surface of the QM region   =    259.8802284 

%%%% DIELECTRIC %%%%%%%%%%%%%%%%%%%%%%%%%%%%%%%%%%%%%%%%%%%%%%%%%%%%%%%%%%%%%%%%%
 dielectric build on homogeneous background
 environment bulk permitt.  =    100.0000000 
 dielectric flags
 need gradient              =  F 
 need factor depend. sqrt   =  T 
 total dielectric charge    =      0.0000000

%%%% COMPUTE ELECTROSTATIC POTENTIAL %%%%%%%%%%%%%%%%%%%%%%%%%%%%%%%%%%%%%%%%%%%
 Iteration #          1
  pAp =    1295.72282836161       rzold =    1273.54774939727       alpha = 
  0.982885939431677     
 delta_qm =   0.267472E+00 delta_en =   0.556305E+05 tol =   0.100000E-04
 Iteration #          2
  pAp =    22323.6658754584       rzold =    682.674246267980       alpha = 
  3.058074108780143E-002
 delta_qm =   0.106259E+00 delta_en =   0.877989E+04 tol =   0.100000E-04
 Iteration #          3
  pAp =   -1.82611533190519       rzold =   0.929328036627236       alpha = 
 -0.508909826444350     
 delta_qm =   0.443373E-01 delta_en =   0.152860E+04 tol =   0.100000E-04
 Iteration #          4
  pAp =    41.5250529614885       rzold =    2.05415338948590       alpha = 
  4.946780902100168E-002
 delta_qm =   0.605516E-01 delta_en =   0.285107E+04 tol =   0.100000E-04
 Iteration #          5
  pAp =   0.820406917288487       rzold =  -0.743342013244676       alpha = 
 -0.906065024051093     
 delta_qm =   0.157503E-01 delta_en =   0.192900E+03 tol =   0.100000E-04
 Iteration #          6
  pAp =    1.23875411497634       rzold =   0.352045956530100       alpha = 
  0.284193571810516     
 delta_qm =   0.555116E-02 delta_en =   0.239620E+02 tol =   0.100000E-04
 Iteration #          7
  pAp =   4.708392357603263E-002  rzold =   2.182700427458490E-002  alpha = 
  0.463576580217193     
 delta_qm =   0.297495E-02 delta_en =   0.688202E+01 tol =   0.100000E-04
 Iteration #          8
  pAp =   6.491303241901568E-003  rzold =   3.559612061019555E-003  alpha = 
  0.548366318498595     
 delta_qm =   0.370183E-02 delta_en =   0.106559E+02 tol =   0.100000E-04
 Iteration #          9
  pAp =   1.897097747353654E-003  rzold =   1.808953318304220E-003  alpha = 
  0.953537223280988     
 delta_qm =   0.432636E-02 delta_en =   0.145547E+02 tol =   0.100000E-04
 Iteration #         10
  pAp =   2.299572040203049E-003  rzold =   3.677811573924800E-003  alpha = 
   1.59934609989433     
 delta_qm =   0.443534E-02 delta_en =   0.152971E+02 tol =   0.100000E-04
 Iteration #         11
  pAp =   1.534845754822940E-002  rzold =   1.546440998297178E-002  alpha = 
   1.00755466367731     
 delta_qm =   0.455998E-02 delta_en =   0.161689E+02 tol =   0.100000E-04
 Iteration #         12
  pAp =   4.487587549637927E-002  rzold =   2.025564375741997E-002  alpha = 
  0.451370441988463     
 delta_qm =   0.354596E-02 delta_en =   0.977743E+01 tol =   0.100000E-04
 Iteration #         13
  pAp =   0.257884074728444       rzold =   1.034093702565550E-002  alpha = 
  4.009916873131723E-002
 delta_qm =   0.376388E-02 delta_en =   0.110161E+02 tol =   0.100000E-04
 Iteration #         14
  pAp =   5.755002791191790E-003  rzold =   2.890053361554179E-003  alpha = 
  0.502181052974900     
 delta_qm =   0.210242E-02 delta_en =   0.343713E+01 tol =   0.100000E-04
 Iteration #         15
  pAp =   1.651333782414389E-003  rzold =   8.697006184000182E-004  alpha = 
  0.526665552211039     
 delta_qm =   0.131829E-02 delta_en =   0.135139E+01 tol =   0.100000E-04
 Iteration #         16
  pAp =   3.121410586009055E-004  rzold =   2.714977631910040E-004  alpha = 
  0.869791896035482     
 delta_qm =   0.807133E-03 delta_en =   0.506578E+00 tol =   0.100000E-04
 Iteration #         17
  pAp =   5.944173564383909E-004  rzold =   2.600267421237544E-004  alpha = 
  0.437448098221380     
 delta_qm =   0.448864E-03 delta_en =   0.156670E+00 tol =   0.100000E-04
 Iteration #         18
  pAp =   3.797896710158023E-004  rzold =   1.398295125783999E-004  alpha = 
  0.368176186056892     
 delta_qm =   0.209562E-03 delta_en =   0.341494E-01 tol =   0.100000E-04
 Iteration #         19
  pAp =   3.476932911862759E-005  rzold =   1.669725079565766E-005  alpha = 
  0.480229306084372     
 delta_qm =   0.115470E-03 delta_en =   0.103680E-01 tol =   0.100000E-04
 Iteration #         20
  pAp =   4.149486738507556E-006  rzold =   2.098216926299444E-006  alpha = 
  0.505656978446956     
 delta_qm =   0.661567E-04 delta_en =   0.340333E-02 tol =   0.100000E-04
 Iteration #         21
  pAp =   4.496812367887986E-007  rzold =   3.426511735677908E-007  alpha = 
  0.761986815404361     
 delta_qm =   0.280860E-04 delta_en =   0.613391E-03 tol =   0.100000E-04
 Iteration #         22
  pAp =   2.616488264373711E-007  rzold =   1.438462945798054E-007  alpha = 
  0.549768544879129     
 delta_qm =   0.155122E-04 delta_en =   0.187113E-03 tol =   0.100000E-04
 Iteration #         23
  pAp =   2.322755329582259E-007  rzold =   5.369248456992389E-008  alpha = 
  0.231158589482519     
 delta_qm =   0.111627E-04 delta_en =   0.968936E-04 tol =   0.100000E-04
 Iteration #         24
  pAp =   2.831128978615624E-006  rzold =   2.027973006357449E-007  alpha = 
  7.163124752264358E-002
 delta_qm =   0.798473E-05 delta_en =   0.495765E-04 tol =   0.100000E-04
 Iteration #         25
  pAp =   5.157347878388319E-008  rzold =   1.498725065468402E-008  alpha = 
  0.290599955792929     
 delta_qm =   0.486447E-05 delta_en =   0.184004E-04 tol =   0.100000E-04
 Iteration #         26
  pAp =   2.793315177361765E-008  rzold =   8.051576079302176E-009  alpha = 
  0.288244453921836     
 delta_qm =   0.320247E-05 delta_en =   0.797493E-05 tol =   0.100000E-04
 Charges are converged, EXIT

%%%% ELECTRONS %%%%%%%%%%%%%%%%%%%%%%%%%%%%%%%%%%%%%%%%%%%%%%%%%%%%%%%%%%%%%%%%%
 number of electrons        =         89
 total electronic charge    =     89.0000000
 number of spin components  =  1

%%%% BOUNDARY %%%%%%%%%%%%%%%%%%%%%%%%%%%%%%%%%%%%%%%%%%%%%%%%%%%%%%%%%%%%%%%%%%
 boundary mode              = full                 
 boundary is built as a function of a smooth density
 function type              =  2 
 using the modified SCCS function with parameters 
 rhomax                     =      0.0050000 
 rhomin                     =      0.0001000 
 volume of the QM region    =   1509.8525302 
 surface of the QM region   =    353.8976864 

%%%% DIELECTRIC %%%%%%%%%%%%%%%%%%%%%%%%%%%%%%%%%%%%%%%%%%%%%%%%%%%%%%%%%%%%%%%%%
 dielectric build on homogeneous background
 environment bulk permitt.  =    100.0000000 
 dielectric flags
 need gradient              =  F 
 need factor depend. sqrt   =  T 
 total dielectric charge    =      0.9902571

%%%% COMPUTE ELECTROSTATIC POTENTIAL %%%%%%%%%%%%%%%%%%%%%%%%%%%%%%%%%%%%%%%%%%%
 Warning: bad guess with residual norm =   0.281448E+05, reset to no guess
 Iteration #          1
  pAp =    1276.52624857119       rzold =    1274.40952752497       alpha = 
  0.998341811577639     
 delta_qm =   0.189934E+00 delta_en =   0.280517E+05 tol =   0.100000E-04
 Iteration #          2
  pAp =    1418.61378519977       rzold =    33.8995326407902       alpha = 
  2.389623799970087E-002
 delta_qm =   0.247679E+00 delta_en =   0.477017E+05 tol =   0.100000E-04
 Iteration #          3
  pAp =    56.2846891877971       rzold =    1.13838637104050       alpha = 
  2.022550692679870E-002
 delta_qm =   0.261584E+00 delta_en =   0.532084E+05 tol =   0.100000E-04
 Iteration #          4
  pAp =   0.752316565064470       rzold =  -0.962773782903149       alpha = 
  -1.27974555873383     
 delta_qm =   0.290064E-01 delta_en =   0.654252E+03 tol =   0.100000E-04
 Iteration #          5
  pAp =   0.325760721046223       rzold =   0.191060250426734       alpha = 
  0.586504873310445     
 delta_qm =   0.109891E+00 delta_en =   0.939026E+04 tol =   0.100000E-04
 Iteration #          6
  pAp =  -0.301023388542204       rzold =   0.209424621572584       alpha = 
 -0.695708803846723     
 delta_qm =   0.574370E-01 delta_en =   0.256531E+04 tol =   0.100000E-04
 Iteration #          7
  pAp =   0.749077335771137       rzold =   0.175727524909563       alpha = 
  0.234591966033334     
 delta_qm =   0.825336E-02 delta_en =   0.529685E+02 tol =   0.100000E-04
 Iteration #          8
  pAp =   5.069570408732486E-002  rzold =   1.554957522070818E-002  alpha = 
  0.306723725425010     
 delta_qm =   0.472635E-02 delta_en =   0.173703E+02 tol =   0.100000E-04
 Iteration #          9
  pAp =   4.112494863596063E-003  rzold =   1.655218110983570E-003  alpha = 
  0.402485149741004     
 delta_qm =   0.296892E-02 delta_en =   0.685413E+01 tol =   0.100000E-04
 Iteration #         10
  pAp =   1.117077460489526E-003  rzold =   4.559611704583238E-004  alpha = 
  0.408173279459521     
 delta_qm =   0.212455E-02 delta_en =   0.350985E+01 tol =   0.100000E-04
 Iteration #         11
  pAp =   2.400343661564964E-004  rzold =   1.932323983715798E-004  alpha = 
  0.805019720574499     
 delta_qm =   0.137617E-02 delta_en =   0.147265E+01 tol =   0.100000E-04
 Iteration #         12
  pAp =   2.876772613581325E-003  rzold =   3.128681994382766E-004  alpha = 
  0.108756666398038     
 delta_qm =   0.143934E-02 delta_en =   0.161096E+01 tol =   0.100000E-04
 Iteration #         13
  pAp =   7.098394618274340E-003  rzold =   1.013249058203825E-003  alpha = 
  0.142743410685465     
 delta_qm =   0.133744E-02 delta_en =   0.139092E+01 tol =   0.100000E-04
 Iteration #         14
  pAp =   5.748283791547824E-004  rzold =   2.584547990552518E-004  alpha = 
  0.449620805839961     
 delta_qm =   0.113673E-02 delta_en =   0.100478E+01 tol =   0.100000E-04
 Iteration #         15
  pAp =   1.704536036868066E-004  rzold =   6.939373301109483E-005  alpha = 
  0.407112149641610     
 delta_qm =   0.771133E-03 delta_en =   0.462397E+00 tol =   0.100000E-04
 Iteration #         16
  pAp =   7.809571474217460E-005  rzold =   3.321236751724793E-005  alpha = 
  0.425277720127094     
 delta_qm =   0.457323E-03 delta_en =   0.162630E+00 tol =   0.100000E-04
 Iteration #         17
  pAp =   1.730159704365152E-005  rzold =   1.137440041079318E-005  alpha = 
  0.657419103109143     
 delta_qm =   0.402979E-03 delta_en =   0.126276E+00 tol =   0.100000E-04
 Iteration #         18
  pAp =   1.912841483724207E-005  rzold =   1.750537861495053E-005  alpha = 
  0.915150511106045     
 delta_qm =   0.645477E-03 delta_en =   0.323979E+00 tol =   0.100000E-04
 Iteration #         19
  pAp =   1.338060753289773E-005  rzold =   1.539700459998305E-005  alpha = 
   1.15069547941884     
 delta_qm =   0.748786E-03 delta_en =   0.435985E+00 tol =   0.100000E-04
 Iteration #         20
  pAp =   3.379999041511665E-005  rzold =   2.931024066447019E-005  alpha = 
  0.867167129472366     
 delta_qm =   0.106804E-02 delta_en =   0.887019E+00 tol =   0.100000E-04
 Iteration #         21
  pAp =   1.459594932177894E-005  rzold =   5.038289526738299E-005  alpha = 
   3.45184092905869     
 delta_qm =   0.409103E-02 delta_en =   0.130143E+02 tol =   0.100000E-04
 Iteration #         22
  pAp =   4.920338935228590E-003  rzold =   1.060078602559691E-003  alpha = 
  0.215448288525360     
 delta_qm =   0.737794E-02 delta_en =   0.423279E+02 tol =   0.100000E-04
 Iteration #         23
  pAp =  -0.156016556780545       rzold =   1.179336782406253E-002  alpha = 
 -7.559048903156648E-002
 delta_qm =   0.103929E-01 delta_en =   0.839911E+02 tol =   0.100000E-04
 Iteration #         24
  pAp =   1.429902557634582E-002  rzold =  -9.409659318532979E-004  alpha = 
 -6.580629755707912E-002
 delta_qm =   0.796209E-02 delta_en =   0.492958E+02 tol =   0.100000E-04
 Iteration #         25
  pAp =   2.851210050265831E-003  rzold =   7.683129067492184E-004  alpha = 
  0.269469065135199     
 delta_qm =   0.250465E-02 delta_en =   0.487809E+01 tol =   0.100000E-04
 Iteration #         26
  pAp =   7.617385868546161E-004  rzold =   2.504083479730214E-004  alpha = 
  0.328732654869188     
 delta_qm =   0.766726E-03 delta_en =   0.457127E+00 tol =   0.100000E-04
 Iteration #         27
  pAp =   6.646623306421724E-005  rzold =   3.372849875442521E-005  alpha = 
  0.507453141233955     
 delta_qm =   0.517072E-03 delta_en =   0.207902E+00 tol =   0.100000E-04
 Iteration #         28
  pAp =   3.004964345410614E-005  rzold =   1.526111518896483E-005  alpha = 
  0.507863436458827     
 delta_qm =   0.330065E-03 delta_en =   0.847141E-01 tol =   0.100000E-04
 Iteration #         29
  pAp =   1.618328774677868E-005  rzold =   8.232238445642104E-006  alpha = 
  0.508687639647312     
 delta_qm =   0.178797E-03 delta_en =   0.248586E-01 tol =   0.100000E-04
 Iteration #         30
  pAp =   7.822806106497587E-006  rzold =   2.935110864169535E-006  alpha = 
  0.375199234675093     
 delta_qm =   0.140548E-03 delta_en =   0.153604E-01 tol =   0.100000E-04
 Iteration #         31
  pAp =   1.273036874856837E-006  rzold =   9.987766143636937E-007  alpha = 
  0.784562202470383     
 delta_qm =   0.983110E-04 delta_en =   0.751555E-02 tol =   0.100000E-04
 Iteration #         32
  pAp =   5.570249554534397E-007  rzold =   4.230699614943166E-007  alpha = 
  0.759517068943386     
 delta_qm =   0.607057E-04 delta_en =   0.286560E-02 tol =   0.100000E-04
 Iteration #         33
  pAp =   3.167369865232773E-005  rzold =   9.642531709241428E-007  alpha = 
  3.044333980405787E-002
 delta_qm =   0.620548E-04 delta_en =   0.299438E-02 tol =   0.100000E-04
 Iteration #         34
  pAp =   5.619827997011849E-007  rzold =   2.775494091258740E-007  alpha = 
  0.493875273893527     
 delta_qm =   0.294608E-04 delta_en =   0.674910E-03 tol =   0.100000E-04
 Iteration #         35
  pAp =   7.793017328164035E-008  rzold =   5.486179486800411E-008  alpha = 
  0.703986563326801     
 delta_qm =   0.226970E-04 delta_en =   0.400582E-03 tol =   0.100000E-04
 Iteration #         36
  pAp =   2.547469940448973E-008  rzold =   1.985334982287201E-008  alpha = 
  0.779335979892780     
 delta_qm =   0.125271E-04 delta_en =   0.122027E-03 tol =   0.100000E-04
 Iteration #         37
  pAp =   1.732364288084227E-008  rzold =   1.020288232152343E-008  alpha = 
  0.588957091282833     
 delta_qm =   0.793571E-05 delta_en =   0.489697E-04 tol =   0.100000E-04
 Iteration #         38
  pAp =   6.197857528811296E-009  rzold =   3.722592772853851E-009  alpha = 
  0.600625741322553     
 delta_qm =   0.503504E-05 delta_en =   0.197134E-04 tol =   0.100000E-04
 Iteration #         39
  pAp =   1.663830948672102E-009  rzold =   1.080425008227287E-009  alpha = 
  0.649359845776141     
 delta_qm =   0.370075E-05 delta_en =   0.106496E-04 tol =   0.100000E-04
 Iteration #         40
  pAp =   6.743843663057521E-010  rzold =   5.322794512617496E-010  alpha = 
  0.789282014613644     
 delta_qm =   0.265396E-05 delta_en =   0.547705E-05 tol =   0.100000E-04
 Charges are converged, EXIT

%%%% ELECTRONS %%%%%%%%%%%%%%%%%%%%%%%%%%%%%%%%%%%%%%%%%%%%%%%%%%%%%%%%%%%%%%%%%
 number of electrons        =         89
 total electronic charge    =     89.0000000
 number of spin components  =  1

%%%% BOUNDARY %%%%%%%%%%%%%%%%%%%%%%%%%%%%%%%%%%%%%%%%%%%%%%%%%%%%%%%%%%%%%%%%%%
 boundary mode              = full                 
 boundary is built as a function of a smooth density
 function type              =  2 
 using the modified SCCS function with parameters 
 rhomax                     =      0.0050000 
 rhomin                     =      0.0001000 
 volume of the QM region    =   1507.4061413 
 surface of the QM region   =    274.4065788 

%%%% DIELECTRIC %%%%%%%%%%%%%%%%%%%%%%%%%%%%%%%%%%%%%%%%%%%%%%%%%%%%%%%%%%%%%%%%%
 dielectric build on homogeneous background
 environment bulk permitt.  =    100.0000000 
 dielectric flags
 need gradient              =  F 
 need factor depend. sqrt   =  T 
 total dielectric charge    =      0.9884483

%%%% COMPUTE ELECTROSTATIC POTENTIAL %%%%%%%%%%%%%%%%%%%%%%%%%%%%%%%%%%%%%%%%%%%
 Warning: bad guess with residual norm =   0.117822E+05, reset to no guess
 Iteration #          1
  pAp =    1276.39448899838       rzold =    1273.17614942594       alpha = 
  0.997478569830738     
 delta_qm =   0.122785E+00 delta_en =   0.117233E+05 tol =   0.100000E-04
 Iteration #          2
  pAp =    2785.34417313827       rzold =    82.9384972874865       alpha = 
  2.977675006462098E-002
 delta_qm =   0.127468E+00 delta_en =   0.126346E+05 tol =   0.100000E-04
 Iteration #          3
  pAp =    21.8460441588719       rzold =    2.98103778426917       alpha = 
  0.136456640048425     
 delta_qm =   0.151037E+00 delta_en =   0.177387E+05 tol =   0.100000E-04
 Iteration #          4
  pAp =   -3.89981094565771       rzold =   0.729872930991172       alpha = 
 -0.187155977856788     
 delta_qm =   0.967915E-01 delta_en =   0.728501E+04 tol =   0.100000E-04
 Iteration #          5
  pAp =   0.530278030412818       rzold =  -0.424930079691042       alpha = 
 -0.801334498735006     
 delta_qm =   0.224600E-01 delta_en =   0.392261E+03 tol =   0.100000E-04
 Iteration #          6
  pAp =   0.647077772450356       rzold =   0.211889987655600       alpha = 
  0.327456755087127     
 delta_qm =   0.768833E-02 delta_en =   0.459643E+02 tol =   0.100000E-04
 Iteration #          7
  pAp =   4.075116718452312E-002  rzold =   1.816437630476550E-002  alpha = 
  0.445738798658610     
 delta_qm =   0.164387E-02 delta_en =   0.210131E+01 tol =   0.100000E-04
 Iteration #          8
  pAp =   3.606503101719000E-003  rzold =   1.674456503054895E-003  alpha = 
  0.464288108405282     
 delta_qm =   0.140129E-02 delta_en =   0.152690E+01 tol =   0.100000E-04
 Iteration #          9
  pAp =   7.599686239689678E-004  rzold =   2.913011210913292E-004  alpha = 
  0.383306773337558     
 delta_qm =   0.134131E-02 delta_en =   0.139899E+01 tol =   0.100000E-04
 Iteration #         10
  pAp =   1.885957066347825E-004  rzold =   1.315853536070930E-004  alpha = 
  0.697711289164760     
 delta_qm =   0.102110E-02 delta_en =   0.810764E+00 tol =   0.100000E-04
 Iteration #         11
  pAp =   1.828085059608509E-004  rzold =   1.795057398436247E-004  alpha = 
  0.981933192332235     
 delta_qm =   0.849935E-03 delta_en =   0.561729E+00 tol =   0.100000E-04
 Iteration #         12
  pAp =   3.734943950481850E-004  rzold =   2.192864863564942E-004  alpha = 
  0.587121223942875     
 delta_qm =   0.112878E-02 delta_en =   0.990768E+00 tol =   0.100000E-04
 Iteration #         13
  pAp =   6.639452055308167E-004  rzold =   1.679247595648786E-004  alpha = 
  0.252919605663278     
 delta_qm =   0.133117E-02 delta_en =   0.137793E+01 tol =   0.100000E-04
 Iteration #         14
  pAp =   9.927502192364279E-003  rzold =   8.432310956447143E-004  alpha = 
  8.493889795292960E-002
 delta_qm =   0.119960E-02 delta_en =   0.111899E+01 tol =   0.100000E-04
 Iteration #         15
  pAp =   2.723398808681612E-004  rzold =   1.767585471069897E-004  alpha = 
  0.649036588190908     
 delta_qm =   0.125321E-02 delta_en =   0.122125E+01 tol =   0.100000E-04
 Iteration #         16
  pAp =   2.319448549001025E-004  rzold =   2.404362578657952E-004  alpha = 
   1.03660957674336     
 delta_qm =   0.134453E-02 delta_en =   0.140572E+01 tol =   0.100000E-04
 Iteration #         17
  pAp =   4.374249715776750E-004  rzold =   3.613242253668316E-004  alpha = 
  0.826025601747499     
 delta_qm =   0.748115E-03 delta_en =   0.435204E+00 tol =   0.100000E-04
 Iteration #         18
  pAp =   4.269399728267545E-004  rzold =   2.111454807936738E-004  alpha = 
  0.494555427536305     
 delta_qm =   0.326888E-03 delta_en =   0.830913E-01 tol =   0.100000E-04
 Iteration #         19
  pAp =   5.568380071425079E-005  rzold =   2.592124170596954E-005  alpha = 
  0.465507766594238     
 delta_qm =   0.203087E-03 delta_en =   0.320716E-01 tol =   0.100000E-04
 Iteration #         20
  pAp =   8.882529268371213E-006  rzold =   4.239865704001238E-006  alpha = 
  0.477326398360261     
 delta_qm =   0.106078E-03 delta_en =   0.874992E-02 tol =   0.100000E-04
 Iteration #         21
  pAp =   1.399543845021577E-006  rzold =   9.404692674029254E-007  alpha = 
  0.671982711187177     
 delta_qm =   0.457460E-04 delta_en =   0.162728E-02 tol =   0.100000E-04
 Iteration #         22
  pAp =   7.811351006571632E-007  rzold =   3.793218257802969E-007  alpha = 
  0.485603355246969     
 delta_qm =   0.285895E-04 delta_en =   0.635578E-03 tol =   0.100000E-04
 Iteration #         23
  pAp =   1.790202030278963E-007  rzold =   1.072521318270146E-007  alpha = 
  0.599106302042914     
 delta_qm =   0.106133E-04 delta_en =   0.875910E-04 tol =   0.100000E-04
 Iteration #         24
  pAp =   1.042441494314036E-007  rzold =   2.104954745066372E-008  alpha = 
  0.201925456397100     
 delta_qm =   0.763637E-05 delta_en =   0.453451E-04 tol =   0.100000E-04
 Iteration #         25
  pAp =   1.073956536556516E-006  rzold =   7.568146815014313E-008  alpha = 
  7.046976816473842E-002
 delta_qm =   0.545133E-05 delta_en =   0.231079E-04 tol =   0.100000E-04
 Iteration #         26
  pAp =   7.226050143504845E-009  rzold =   2.943337523237599E-009  alpha = 
  0.407323152314854     
 delta_qm =   0.396928E-05 delta_en =   0.122512E-04 tol =   0.100000E-04
 Iteration #         27
  pAp =   1.099717679577709E-008  rzold =   2.874648925624798E-009  alpha = 
  0.261398809804409     
 delta_qm =   0.242385E-05 delta_en =   0.456845E-05 tol =   0.100000E-04
 Charges are converged, EXIT

%%%% ELECTRONS %%%%%%%%%%%%%%%%%%%%%%%%%%%%%%%%%%%%%%%%%%%%%%%%%%%%%%%%%%%%%%%%%
 number of electrons        =         89
 total electronic charge    =     89.0000000
 number of spin components  =  1

%%%% BOUNDARY %%%%%%%%%%%%%%%%%%%%%%%%%%%%%%%%%%%%%%%%%%%%%%%%%%%%%%%%%%%%%%%%%%
 boundary mode              = full                 
 boundary is built as a function of a smooth density
 function type              =  2 
 using the modified SCCS function with parameters 
 rhomax                     =      0.0050000 
 rhomin                     =      0.0001000 
 volume of the QM region    =   1499.3688251 
 surface of the QM region   =    287.8051186 

%%%% DIELECTRIC %%%%%%%%%%%%%%%%%%%%%%%%%%%%%%%%%%%%%%%%%%%%%%%%%%%%%%%%%%%%%%%%%
 dielectric build on homogeneous background
 environment bulk permitt.  =    100.0000000 
 dielectric flags
 need gradient              =  F 
 need factor depend. sqrt   =  T 
 total dielectric charge    =      0.9882930

%%%% COMPUTE ELECTROSTATIC POTENTIAL %%%%%%%%%%%%%%%%%%%%%%%%%%%%%%%%%%%%%%%%%%%
 Warning: bad guess with residual norm =   0.135167E+05, reset to no guess
 Iteration #          1
  pAp =    1273.85365123762       rzold =    1271.16342309407       alpha = 
  0.997888118355720     
 delta_qm =   0.131566E+00 delta_en =   0.134600E+05 tol =   0.100000E-04
 Iteration #          2
  pAp =    2219.15695078849       rzold =    64.2545455351174       alpha = 
  2.895448450020046E-002
 delta_qm =   0.145356E+00 delta_en =   0.164294E+05 tol =   0.100000E-04
 Iteration #          3
  pAp =    29.4122765634710       rzold =    3.34716162690125       alpha = 
  0.113801514808898     
 delta_qm =   0.168382E+00 delta_en =   0.220468E+05 tol =   0.100000E-04
 Iteration #          4
  pAp =   -2.66644329835262       rzold =   0.225056327069641       alpha = 
 -8.440319252567054E-002
 delta_qm =   0.139396E+00 delta_en =   0.151096E+05 tol =   0.100000E-04
 Iteration #          5
  pAp =   8.778787050319481E-002  rzold =  -0.168604008205841       alpha = 
  -1.92058432719022     
 delta_qm =   0.324891E-01 delta_en =   0.820791E+03 tol =   0.100000E-04
 Iteration #          6
  pAp =   0.609883073055027       rzold =   0.220295290938563       alpha = 
  0.361209059033331     
 delta_qm =   0.969563E-02 delta_en =   0.730985E+02 tol =   0.100000E-04
 Iteration #          7
  pAp =   5.924390361068622E-002  rzold =   2.374868972697608E-002  alpha = 
  0.400863013400291     
 delta_qm =   0.216173E-02 delta_en =   0.363379E+01 tol =   0.100000E-04
 Iteration #          8
  pAp =   5.955767768911200E-003  rzold =   2.525012022795828E-003  alpha = 
  0.423960792423147     
 delta_qm =   0.151565E-02 delta_en =   0.178629E+01 tol =   0.100000E-04
 Iteration #          9
  pAp =   1.226361518858088E-003  rzold =   3.974676243745397E-004  alpha = 
  0.324103144352276     
 delta_qm =   0.146271E-02 delta_en =   0.166370E+01 tol =   0.100000E-04
 Iteration #         10
  pAp =   2.356426238912241E-004  rzold =   1.397150140074557E-004  alpha = 
  0.592910619056551     
 delta_qm =   0.106627E-02 delta_en =   0.884075E+00 tol =   0.100000E-04
 Iteration #         11
  pAp =   1.008773845865076E-004  rzold =   1.067465027053245E-004  alpha = 
   1.05818071258364     
 delta_qm =   0.518079E-03 delta_en =   0.208712E+00 tol =   0.100000E-04
 Iteration #         12
  pAp =   1.514347481163080E-004  rzold =   8.864040222406848E-005  alpha = 
  0.585337271178931     
 delta_qm =   0.681546E-03 delta_en =   0.361199E+00 tol =   0.100000E-04
 Iteration #         13
  pAp =   6.168670712266534E-003  rzold =   2.386026384913367E-004  alpha = 
  3.867974959611156E-002
 delta_qm =   0.572412E-03 delta_en =   0.254785E+00 tol =   0.100000E-04
 Iteration #         14
  pAp =   1.319243129634518E-004  rzold =   6.269142263195789E-005  alpha = 
  0.475207497569655     
 delta_qm =   0.667512E-03 delta_en =   0.346477E+00 tol =   0.100000E-04
 Iteration #         15
  pAp =   4.130240710426343E-005  rzold =   3.298111859236415E-005  alpha = 
  0.798527759147473     
 delta_qm =   0.776291E-03 delta_en =   0.468603E+00 tol =   0.100000E-04
 Iteration #         16
  pAp =   6.922764647380005E-005  rzold =   6.704076875524235E-005  alpha = 
  0.968410341388894     
 delta_qm =   0.965013E-03 delta_en =   0.724141E+00 tol =   0.100000E-04
 Iteration #         17
  pAp =   1.136714685949379E-004  rzold =   1.628927796916257E-004  alpha = 
   1.43301376946299     
 delta_qm =   0.107593E-02 delta_en =   0.900174E+00 tol =   0.100000E-04
 Iteration #         18
  pAp =   4.904681336347968E-004  rzold =   3.978076036337362E-004  alpha = 
  0.811077369462588     
 delta_qm =   0.112816E-02 delta_en =   0.989688E+00 tol =   0.100000E-04
 Iteration #         19
  pAp =   2.380369776728120E-004  rzold =   1.427641704351628E-004  alpha = 
  0.599756272453584     
 delta_qm =   0.669455E-03 delta_en =   0.348497E+00 tol =   0.100000E-04
 Iteration #         20
  pAp =   6.976758638551913E-005  rzold =   3.803387399504787E-005  alpha = 
  0.545151064634538     
 delta_qm =   0.400670E-03 delta_en =   0.124833E+00 tol =   0.100000E-04
 Iteration #         21
  pAp =   2.202864767231221E-005  rzold =   1.348330775241542E-005  alpha = 
  0.612080594005894     
 delta_qm =   0.216914E-03 delta_en =   0.365874E-01 tol =   0.100000E-04
 Iteration #         22
  pAp =   8.857336801284023E-006  rzold =   5.065371661975481E-006  alpha = 
  0.571884278041811     
 delta_qm =   0.100657E-03 delta_en =   0.787857E-02 tol =   0.100000E-04
 Iteration #         23
  pAp =   3.678565675119174E-006  rzold =   1.573555667636838E-006  alpha = 
  0.427763374806639     
 delta_qm =   0.599933E-04 delta_en =   0.279873E-02 tol =   0.100000E-04
 Iteration #         24
  pAp =   9.189596254947845E-005  rzold =   3.086366725307523E-006  alpha = 
  3.358544423152178E-002
 delta_qm =   0.419055E-04 delta_en =   0.136552E-02 tol =   0.100000E-04
 Iteration #         25
  pAp =   6.900815443929282E-007  rzold =   2.517215399124548E-007  alpha = 
  0.364770717254722     
 delta_qm =   0.302193E-04 delta_en =   0.710107E-03 tol =   0.100000E-04
 Iteration #         26
  pAp =   7.893647967239699E-008  rzold =   7.751646029233753E-008  alpha = 
  0.982010606680804     
 delta_qm =   0.403371E-04 delta_en =   0.126522E-02 tol =   0.100000E-04
 Iteration #         27
  pAp =  -7.653732936027933E-008  rzold =   1.810592769916421E-007  alpha = 
  -2.36563358696974     
 delta_qm =   0.143223E-03 delta_en =   0.159508E-01 tol =   0.100000E-04
 Iteration #         28
  pAp =   6.531766570826657E-005  rzold =  -2.835341033285719E-006  alpha = 
 -4.340848685483381E-002
 delta_qm =   0.117113E-03 delta_en =   0.106651E-01 tol =   0.100000E-04
 Iteration #         29
  pAp =   1.163174581357624E-005  rzold =   1.690740922528298E-006  alpha = 
  0.145355731600919     
 delta_qm =   0.277715E-04 delta_en =   0.599729E-03 tol =   0.100000E-04
 Iteration #         30
  pAp =   8.497434236525355E-008  rzold =   4.455347388975517E-008  alpha = 
  0.524316783744517     
 delta_qm =   0.125998E-04 delta_en =   0.123447E-03 tol =   0.100000E-04
 Iteration #         31
  pAp =   1.448741546381997E-008  rzold =   1.000551910268545E-008  alpha = 
  0.690635201818616     
 delta_qm =   0.486468E-05 delta_en =   0.184020E-04 tol =   0.100000E-04
 Iteration #         32
  pAp =   5.475678123485056E-009  rzold =   2.697844623702112E-009  alpha = 
  0.492695984471972     
 delta_qm =   0.249758E-05 delta_en =   0.485061E-05 tol =   0.100000E-04
 Charges are converged, EXIT

%%%% ELECTRONS %%%%%%%%%%%%%%%%%%%%%%%%%%%%%%%%%%%%%%%%%%%%%%%%%%%%%%%%%%%%%%%%%
 number of electrons        =         89
 total electronic charge    =     89.0000000
 number of spin components  =  1

%%%% BOUNDARY %%%%%%%%%%%%%%%%%%%%%%%%%%%%%%%%%%%%%%%%%%%%%%%%%%%%%%%%%%%%%%%%%%
 boundary mode              = full                 
 boundary is built as a function of a smooth density
 function type              =  2 
 using the modified SCCS function with parameters 
 rhomax                     =      0.0050000 
 rhomin                     =      0.0001000 
 volume of the QM region    =   1492.4002356 
 surface of the QM region   =    288.6044500 

%%%% DIELECTRIC %%%%%%%%%%%%%%%%%%%%%%%%%%%%%%%%%%%%%%%%%%%%%%%%%%%%%%%%%%%%%%%%%
 dielectric build on homogeneous background
 environment bulk permitt.  =    100.0000000 
 dielectric flags
 need gradient              =  F 
 need factor depend. sqrt   =  T 
 total dielectric charge    =      0.9881070

%%%% COMPUTE ELECTROSTATIC POTENTIAL %%%%%%%%%%%%%%%%%%%%%%%%%%%%%%%%%%%%%%%%%%%
 Warning: bad guess with residual norm =   0.128049E+05, reset to no guess
 Iteration #          1
  pAp =    1272.65011506227       rzold =    1270.07024767530       alpha = 
  0.997972838444414     
 delta_qm =   0.128066E+00 delta_en =   0.127533E+05 tol =   0.100000E-04
 Iteration #          2
  pAp =    2097.48135568112       rzold =    61.0051543232365       alpha = 
  2.908495665909082E-002
 delta_qm =   0.135916E+00 delta_en =   0.143647E+05 tol =   0.100000E-04
 Iteration #          3
  pAp =    33.2825138236028       rzold =    3.74536387674487       alpha = 
  0.112532481668761     
 delta_qm =   0.155630E+00 delta_en =   0.188341E+05 tol =   0.100000E-04
 Iteration #          4
  pAp =   -2.91449778109984       rzold =   0.383656717876744       alpha = 
 -0.131637334008182     
 delta_qm =   0.115028E+00 delta_en =   0.102888E+05 tol =   0.100000E-04
 Iteration #          5
  pAp =   0.215672240991338       rzold =  -0.254831078982682       alpha = 
  -1.18156642603309     
 delta_qm =   0.279060E-01 delta_en =   0.605553E+03 tol =   0.100000E-04
 Iteration #          6
  pAp =   0.530110474201221       rzold =   0.194423895668096       alpha = 
  0.366761090621831     
 delta_qm =   0.851351E-02 delta_en =   0.563603E+02 tol =   0.100000E-04
 Iteration #          7
  pAp =   5.110985796373006E-002  rzold =   2.008531664216102E-002  alpha = 
  0.392983221679358     
 delta_qm =   0.220753E-02 delta_en =   0.378938E+01 tol =   0.100000E-04
 Iteration #          8
  pAp =   5.973842131092632E-003  rzold =   2.532532697432801E-003  alpha = 
  0.423936997640343     
 delta_qm =   0.153663E-02 delta_en =   0.183610E+01 tol =   0.100000E-04
 Iteration #          9
  pAp =   4.931277546551286E-004  rzold =   2.564092690869495E-004  alpha = 
  0.519965194954948     
 delta_qm =   0.137546E-02 delta_en =   0.147114E+01 tol =   0.100000E-04
 Iteration #         10
  pAp =   1.356385884490469E-004  rzold =   1.088527000574388E-004  alpha = 
  0.802520147858437     
 delta_qm =   0.834307E-03 delta_en =   0.541263E+00 tol =   0.100000E-04
 Iteration #         11
  pAp =   2.931576974836947E-004  rzold =   1.596260244889344E-004  alpha = 
  0.544505656372242     
 delta_qm =   0.547918E-03 delta_en =   0.233446E+00 tol =   0.100000E-04
 Iteration #         12
  pAp =   2.414209126043322E-004  rzold =   1.123295911534022E-004  alpha = 
  0.465285256118224     
 delta_qm =   0.579909E-03 delta_en =   0.261502E+00 tol =   0.100000E-04
 Iteration #         13
  pAp =   3.602258152719414E-004  rzold =   6.101748728608767E-005  alpha = 
  0.169386769907161     
 delta_qm =   0.711139E-03 delta_en =   0.393247E+00 tol =   0.100000E-04
 Iteration #         14
  pAp =   2.468520296923364E-003  rzold =   2.210957304252241E-004  alpha = 
  8.956609783633797E-002
 delta_qm =   0.577256E-03 delta_en =   0.259116E+00 tol =   0.100000E-04
 Iteration #         15
  pAp =   3.590280187144491E-005  rzold =   2.824295835179109E-005  alpha = 
  0.786650536437769     
 delta_qm =   0.639031E-03 delta_en =   0.317541E+00 tol =   0.100000E-04
 Iteration #         16
  pAp =   4.029613444943246E-005  rzold =   4.333525618386125E-005  alpha = 
   1.07541968419434     
 delta_qm =   0.792855E-03 delta_en =   0.488814E+00 tol =   0.100000E-04
 Iteration #         17
  pAp =   9.508923583942213E-005  rzold =   1.145099493431198E-004  alpha = 
   1.20423671861759     
 delta_qm =   0.101253E-02 delta_en =   0.797207E+00 tol =   0.100000E-04
 Iteration #         18
  pAp =   3.802846887465474E-004  rzold =   3.116120098350743E-004  alpha = 
  0.819417712719846     
 delta_qm =   0.104016E-02 delta_en =   0.841306E+00 tol =   0.100000E-04
 Iteration #         19
  pAp =   2.949858576243985E-004  rzold =   1.537489487536968E-004  alpha = 
  0.521207863969748     
 delta_qm =   0.763861E-03 delta_en =   0.453717E+00 tol =   0.100000E-04
 Iteration #         20
  pAp =   9.212766810177575E-005  rzold =   4.961711724643598E-005  alpha = 
  0.538569121185426     
 delta_qm =   0.431049E-03 delta_en =   0.144480E+00 tol =   0.100000E-04
 Iteration #         21
  pAp =   2.234424338719852E-005  rzold =   1.589068219195399E-005  alpha = 
  0.711175666885999     
 delta_qm =   0.227131E-03 delta_en =   0.401151E-01 tol =   0.100000E-04
 Iteration #         22
  pAp =   1.369804403676818E-005  rzold =   7.216959147176105E-006  alpha = 
  0.526860559639347     
 delta_qm =   0.118909E-03 delta_en =   0.109948E-01 tol =   0.100000E-04
 Iteration #         23
  pAp =   4.911453727751919E-006  rzold =   2.457937231794741E-006  alpha = 
  0.500450043518947     
 delta_qm =   0.610651E-04 delta_en =   0.289963E-02 tol =   0.100000E-04
 Iteration #         24
  pAp =   6.105767542062849E-006  rzold =   6.739562338374529E-007  alpha = 
  0.110380264101859     
 delta_qm =   0.509794E-04 delta_en =   0.202090E-02 tol =   0.100000E-04
 Iteration #         25
  pAp =   1.360327345345217E-005  rzold =   1.598466664959145E-006  alpha = 
  0.117506030473385     
 delta_qm =   0.396803E-04 delta_en =   0.122435E-02 tol =   0.100000E-04
 Iteration #         26
  pAp =   1.892259264632132E-007  rzold =   1.255686717113628E-007  alpha = 
  0.663591263936944     
 delta_qm =   0.250229E-04 delta_en =   0.486890E-03 tol =   0.100000E-04
 Iteration #         27
  pAp =   3.047927907546421E-007  rzold =   7.371221561321780E-008  alpha = 
  0.241843697912645     
 delta_qm =   0.194791E-04 delta_en =   0.295050E-03 tol =   0.100000E-04
 Iteration #         28
  pAp =   1.472215984893589E-007  rzold =   4.562418249065760E-008  alpha = 
  0.309901420435639     
 delta_qm =   0.137702E-04 delta_en =   0.147446E-03 tol =   0.100000E-04
 Iteration #         29
  pAp =   9.701332757873920E-009  rzold =  -2.238181073808492E-008  alpha = 
  -2.30708618049609     
 delta_qm =   0.963475E-04 delta_en =   0.721834E-02 tol =   0.100000E-04
 Iteration #         30
  pAp =  -7.639075009501441E-006  rzold =   6.293976560791872E-007  alpha = 
 -8.239186750965867E-002
 delta_qm =   0.179329E-04 delta_en =   0.250068E-03 tol =   0.100000E-04
 Iteration #         31
  pAp =   3.220776302400233E-008  rzold =   2.429481362216887E-008  alpha = 
  0.754315461277567     
 delta_qm =   0.986846E-05 delta_en =   0.757278E-04 tol =   0.100000E-04
 Iteration #         32
  pAp =   8.435500071278102E-009  rzold =   6.969185279639366E-009  alpha = 
  0.826173341325505     
 delta_qm =   0.570681E-05 delta_en =   0.253247E-04 tol =   0.100000E-04
 Iteration #         33
  pAp =   2.409815763055883E-009  rzold =   1.918168396312028E-009  alpha = 
  0.795981346673408     
 delta_qm =   0.333511E-05 delta_en =   0.864924E-05 tol =   0.100000E-04
 Charges are converged, EXIT

%%%% ELECTRONS %%%%%%%%%%%%%%%%%%%%%%%%%%%%%%%%%%%%%%%%%%%%%%%%%%%%%%%%%%%%%%%%%
 number of electrons        =         89
 total electronic charge    =     89.0000000
 number of spin components  =  1

%%%% BOUNDARY %%%%%%%%%%%%%%%%%%%%%%%%%%%%%%%%%%%%%%%%%%%%%%%%%%%%%%%%%%%%%%%%%%
 boundary mode              = full                 
 boundary is built as a function of a smooth density
 function type              =  2 
 using the modified SCCS function with parameters 
 rhomax                     =      0.0050000 
 rhomin                     =      0.0001000 
 volume of the QM region    =   1485.4979196 
 surface of the QM region   =    275.7908290 

%%%% DIELECTRIC %%%%%%%%%%%%%%%%%%%%%%%%%%%%%%%%%%%%%%%%%%%%%%%%%%%%%%%%%%%%%%%%%
 dielectric build on homogeneous background
 environment bulk permitt.  =    100.0000000 
 dielectric flags
 need gradient              =  F 
 need factor depend. sqrt   =  T 
 total dielectric charge    =      0.9879218

%%%% COMPUTE ELECTROSTATIC POTENTIAL %%%%%%%%%%%%%%%%%%%%%%%%%%%%%%%%%%%%%%%%%%%
 Warning: bad guess with residual norm =   0.925552E+04, reset to no guess
 Iteration #          1
  pAp =    1271.85626135464       rzold =    1269.44853591074       alpha = 
  0.998106920163028     
 delta_qm =   0.108894E+00 delta_en =   0.922077E+04 tol =   0.100000E-04
 Iteration #          2
  pAp =    1771.60860367072       rzold =    54.2323148666899       alpha = 
  3.061190533525427E-002
 delta_qm =   0.110047E+00 delta_en =   0.941698E+04 tol =   0.100000E-04
 Iteration #          3
  pAp =    35.1691671871723       rzold =    4.25864079204586       alpha = 
  0.121090180196225     
 delta_qm =   0.120751E+00 delta_en =   0.113380E+05 tol =   0.100000E-04
 Iteration #          4
  pAp =   -3.30535618080385       rzold =   0.836522694843200       alpha = 
 -0.253080953786881     
 delta_qm =   0.698986E-01 delta_en =   0.379921E+04 tol =   0.100000E-04
 Iteration #          5
  pAp =   0.989110153107358       rzold =  -0.560902636502810       alpha = 
 -0.567078029419368     
 delta_qm =   0.163941E-01 delta_en =   0.208994E+03 tol =   0.100000E-04
 Iteration #          6
  pAp =   0.525665083171543       rzold =   0.178593592578653       alpha = 
  0.339747870452280     
 delta_qm =   0.556886E-02 delta_en =   0.241151E+02 tol =   0.100000E-04
 Iteration #          7
  pAp =   3.997550405442112E-002  rzold =   1.549060256488707E-002  alpha = 
  0.387502370046385     
 delta_qm =   0.169685E-02 delta_en =   0.223895E+01 tol =   0.100000E-04
 Iteration #          8
  pAp =   4.889916192010290E-003  rzold =   2.050891187752169E-003  alpha = 
  0.419412339030095     
 delta_qm =   0.111514E-02 delta_en =   0.966980E+00 tol =   0.100000E-04
 Iteration #          9
  pAp =   1.199624021615186E-003  rzold =   3.905737309306743E-004  alpha = 
  0.325580118348082     
 delta_qm =   0.112165E-02 delta_en =   0.978295E+00 tol =   0.100000E-04
 Iteration #         10
  pAp =   2.324435601175336E-004  rzold =   1.334153881003143E-004  alpha = 
  0.573968958455350     
 delta_qm =   0.917060E-03 delta_en =   0.653961E+00 tol =   0.100000E-04
 Iteration #         11
  pAp =   8.538942191818346E-005  rzold =   9.517411935455415E-005  alpha = 
   1.11458910502692     
 delta_qm =   0.464711E-03 delta_en =   0.167928E+00 tol =   0.100000E-04
 Iteration #         12
  pAp =   1.410365191360382E-004  rzold =   8.495839448038507E-005  alpha = 
  0.602385786325580     
 delta_qm =   0.477488E-03 delta_en =   0.177289E+00 tol =   0.100000E-04
 Iteration #         13
  pAp =   1.332135035170800E-004  rzold =   3.954859075728021E-005  alpha = 
  0.296881244867263     
 delta_qm =   0.590055E-03 delta_en =   0.270733E+00 tol =   0.100000E-04
 Iteration #         14
  pAp =   3.231540004438223E-003  rzold =   1.930728007691302E-004  alpha = 
  5.974637494939331E-002
 delta_qm =   0.479657E-03 delta_en =   0.178903E+00 tol =   0.100000E-04
 Iteration #         15
  pAp =   2.306851253547844E-005  rzold =   2.622430646180972E-005  alpha = 
   1.13680092816898     
 delta_qm =   0.539003E-03 delta_en =   0.225912E+00 tol =   0.100000E-04
 Iteration #         16
  pAp =   5.771440205138606E-005  rzold =   6.091546668541360E-005  alpha = 
   1.05546387938278     
 delta_qm =   0.723220E-03 delta_en =   0.406721E+00 tol =   0.100000E-04
 Iteration #         17
  pAp =   1.705494537577270E-004  rzold =   1.460313614217295E-004  alpha = 
  0.856240569548662     
 delta_qm =   0.826034E-03 delta_en =   0.530582E+00 tol =   0.100000E-04
 Iteration #         18
  pAp =   4.875663440681141E-004  rzold =   2.674357746483108E-004  alpha = 
  0.548511557251682     
 delta_qm =   0.559910E-03 delta_en =   0.243777E+00 tol =   0.100000E-04
 Iteration #         19
  pAp =   1.794064752831832E-004  rzold =   8.654609476323535E-005  alpha = 
  0.482402291370070     
 delta_qm =   0.358357E-03 delta_en =   0.998592E-01 tol =   0.100000E-04
 Iteration #         20
  pAp =   3.484368109129574E-005  rzold =   1.815497146635784E-005  alpha = 
  0.521040570276977     
 delta_qm =   0.234314E-03 delta_en =   0.426927E-01 tol =   0.100000E-04
 Iteration #         21
  pAp =   5.510016213490004E-006  rzold =   4.717751411312864E-006  alpha = 
  0.856213707640739     
 delta_qm =   0.108478E-03 delta_en =   0.915045E-02 tol =   0.100000E-04
 Iteration #         22
  pAp =   3.753842231498135E-006  rzold =   2.187559154221637E-006  alpha = 
  0.582752022944927     
 delta_qm =   0.588832E-04 delta_en =   0.269612E-02 tol =   0.100000E-04
 Iteration #         23
  pAp =   1.134070461037169E-006  rzold =   6.213453615653219E-007  alpha = 
  0.547889556171905     
 delta_qm =   0.393806E-04 delta_en =   0.120592E-02 tol =   0.100000E-04
 Iteration #         24
  pAp =   2.669416052109897E-007  rzold =   1.457789977967731E-007  alpha = 
  0.546108193518766     
 delta_qm =   0.251451E-04 delta_en =   0.491658E-03 tol =   0.100000E-04
 Iteration #         25
  pAp =   5.926598735918276E-006  rzold =   2.577874665548600E-007  alpha = 
  4.349669651034981E-002
 delta_qm =   0.229228E-04 delta_en =   0.408593E-03 tol =   0.100000E-04
 Iteration #         26
  pAp =   2.941279586884408E-007  rzold =   1.106658810238216E-007  alpha = 
  0.376250804300607     
 delta_qm =   0.143665E-04 delta_en =   0.160495E-03 tol =   0.100000E-04
 Iteration #         27
  pAp =   1.490552029466427E-007  rzold =   4.313013116316941E-008  alpha = 
  0.289356763873642     
 delta_qm =   0.125545E-04 delta_en =   0.122561E-03 tol =   0.100000E-04
 Iteration #         28
  pAp =   8.883039906451430E-008  rzold =   3.845859934810173E-008  alpha = 
  0.432944124456433     
 delta_qm =   0.777847E-05 delta_en =   0.470483E-04 tol =   0.100000E-04
 Iteration #         29
  pAp =   1.078868813478851E-008  rzold =   7.042024443175234E-009  alpha = 
  0.652722959010000     
 delta_qm =   0.480110E-05 delta_en =   0.179241E-04 tol =   0.100000E-04
 Iteration #         30
  pAp =   2.962493217179306E-008  rzold =  -2.511291670979543E-009  alpha = 
 -8.476953318970405E-002
 delta_qm =   0.613520E-05 delta_en =   0.292694E-04 tol =   0.100000E-04
 Iteration #         31
  pAp =  -1.443483307442504E-009  rzold =   2.587427358146170E-009  alpha = 
  -1.79248858979218     
 delta_qm =   0.508141E-05 delta_en =   0.200782E-04 tol =   0.100000E-04
 Iteration #         32
  pAp =   1.265961142214824E-008  rzold =   4.914416902690930E-009  alpha = 
  0.388196504522490     
 delta_qm =   0.244854E-05 delta_en =   0.466197E-05 tol =   0.100000E-04
 Charges are converged, EXIT

%%%% ELECTRONS %%%%%%%%%%%%%%%%%%%%%%%%%%%%%%%%%%%%%%%%%%%%%%%%%%%%%%%%%%%%%%%%%
 number of electrons        =         89
 total electronic charge    =     89.0000000
 number of spin components  =  1

%%%% BOUNDARY %%%%%%%%%%%%%%%%%%%%%%%%%%%%%%%%%%%%%%%%%%%%%%%%%%%%%%%%%%%%%%%%%%
 boundary mode              = full                 
 boundary is built as a function of a smooth density
 function type              =  2 
 using the modified SCCS function with parameters 
 rhomax                     =      0.0050000 
 rhomin                     =      0.0001000 
 volume of the QM region    =   1479.7208549 
 surface of the QM region   =    271.4720733 

%%%% DIELECTRIC %%%%%%%%%%%%%%%%%%%%%%%%%%%%%%%%%%%%%%%%%%%%%%%%%%%%%%%%%%%%%%%%%
 dielectric build on homogeneous background
 environment bulk permitt.  =    100.0000000 
 dielectric flags
 need gradient              =  F 
 need factor depend. sqrt   =  T 
 total dielectric charge    =      0.9878613

%%%% COMPUTE ELECTROSTATIC POTENTIAL %%%%%%%%%%%%%%%%%%%%%%%%%%%%%%%%%%%%%%%%%%%
 Warning: bad guess with residual norm =   0.759446E+04, reset to no guess
 Iteration #          1
  pAp =    1272.19118277882       rzold =    1269.68221643520       alpha = 
  0.998027838600374     
 delta_qm =   0.986328E-01 delta_en =   0.756482E+04 tol =   0.100000E-04
 Iteration #          2
  pAp =    1787.45729333471       rzold =    55.4586863583278       alpha = 
  3.102657980424423E-002
 delta_qm =   0.995708E-01 delta_en =   0.770940E+04 tol =   0.100000E-04
 Iteration #          3
  pAp =    41.0062113958672       rzold =    4.82090940912221       alpha = 
  0.117565345468811     
 delta_qm =   0.106342E+00 delta_en =   0.879361E+04 tol =   0.100000E-04
 Iteration #          4
  pAp =   -2.93602623987448       rzold =   0.829807547672685       alpha = 
 -0.282629472585423     
 delta_qm =   0.599029E-01 delta_en =   0.279030E+04 tol =   0.100000E-04
 Iteration #          5
  pAp =    1.18954555987733       rzold =  -0.602465529497320       alpha = 
 -0.506466965047938     
 delta_qm =   0.149114E-01 delta_en =   0.172899E+03 tol =   0.100000E-04
 Iteration #          6
  pAp =   0.645815933819819       rzold =   0.213175714918056       alpha = 
  0.330087419270042     
 delta_qm =   0.503707E-02 delta_en =   0.197293E+02 tol =   0.100000E-04
 Iteration #          7
  pAp =   4.174524729182719E-002  rzold =   1.610440201085995E-002  alpha = 
  0.385778095845963     
 delta_qm =   0.155594E-02 delta_en =   0.188252E+01 tol =   0.100000E-04
 Iteration #          8
  pAp =   4.746605818969486E-003  rzold =   2.033172097757828E-003  alpha = 
  0.428342309283909     
 delta_qm =   0.990301E-03 delta_en =   0.762590E+00 tol =   0.100000E-04
 Iteration #          9
  pAp =   1.203482620491983E-003  rzold =   3.999572795688847E-004  alpha = 
  0.332333240845125     
 delta_qm =   0.981507E-03 delta_en =   0.749106E+00 tol =   0.100000E-04
 Iteration #         10
  pAp =   2.684045762703233E-004  rzold =   1.381953210125816E-004  alpha = 
  0.514876918020200     
 delta_qm =   0.827907E-03 delta_en =   0.532990E+00 tol =   0.100000E-04
 Iteration #         11
  pAp =   8.271501699183335E-005  rzold =   8.630492191151819E-005  alpha = 
   1.04340088475155     
 delta_qm =   0.427126E-03 delta_en =   0.141863E+00 tol =   0.100000E-04
 Iteration #         12
  pAp =   1.377990805263043E-004  rzold =   7.941964585719390E-005  alpha = 
  0.576343801089686     
 delta_qm =   0.299879E-03 delta_en =   0.699277E-01 tol =   0.100000E-04
 Iteration #         13
  pAp =   2.470257657995211E-003  rzold =   1.016119002440334E-004  alpha = 
  4.113413024554640E-002
 delta_qm =   0.383905E-03 delta_en =   0.114605E+00 tol =   0.100000E-04
 Iteration #         14
  pAp =   9.679562202469026E-005  rzold =   3.873784537464990E-005  alpha = 
  0.400202453007315     
 delta_qm =   0.361274E-03 delta_en =   0.101491E+00 tol =   0.100000E-04
 Iteration #         15
  pAp =   2.339835405880982E-005  rzold =   1.809671993011243E-005  alpha = 
  0.773418501345344     
 delta_qm =   0.379451E-03 delta_en =   0.111961E+00 tol =   0.100000E-04
 Iteration #         16
  pAp =   4.254927717435590E-005  rzold =   3.721089525638859E-005  alpha = 
  0.874536483990268     
 delta_qm =   0.472639E-03 delta_en =   0.173706E+00 tol =   0.100000E-04
 Iteration #         17
  pAp =   5.817824915808659E-005  rzold =   6.336132922592520E-005  alpha = 
   1.08908965365655     
 delta_qm =   0.580185E-03 delta_en =   0.261751E+00 tol =   0.100000E-04
 Iteration #         18
  pAp =   1.943365009799041E-004  rzold =   1.225131567868044E-004  alpha = 
  0.630417632143501     
 delta_qm =   0.366718E-03 delta_en =   0.104573E+00 tol =   0.100000E-04
 Iteration #         19
  pAp =   9.088275101801637E-005  rzold =   4.574681131160825E-005  alpha = 
  0.503360767573371     
 delta_qm =   0.212554E-03 delta_en =   0.351313E-01 tol =   0.100000E-04
 Iteration #         20
  pAp =   1.674444482439021E-005  rzold =   8.645420856543530E-006  alpha = 
  0.516315766047405     
 delta_qm =   0.139982E-03 delta_en =   0.152371E-01 tol =   0.100000E-04
 Iteration #         21
  pAp =   2.242426662772990E-006  rzold =   1.902546888901025E-006  alpha = 
  0.848432156326723     
 delta_qm =   0.654718E-04 delta_en =   0.333322E-02 tol =   0.100000E-04
 Iteration #         22
  pAp =   1.564774694365765E-006  rzold =   9.612163161580615E-007  alpha = 
  0.614284164754889     
 delta_qm =   0.362671E-04 delta_en =   0.102278E-02 tol =   0.100000E-04
 Iteration #         23
  pAp =   1.328041423740667E-006  rzold =   3.174080687998289E-007  alpha = 
  0.239004644829370     
 delta_qm =   0.353996E-04 delta_en =   0.974437E-03 tol =   0.100000E-04
 Iteration #         24
  pAp =   2.077353563089716E-005  rzold =   1.333391475023003E-006  alpha = 
  6.418702616225841E-002
 delta_qm =   0.245091E-04 delta_en =   0.467101E-03 tol =   0.100000E-04
 Iteration #         25
  pAp =   2.640839455820426E-007  rzold =   8.185381253325244E-008  alpha = 
  0.309953762440372     
 delta_qm =   0.195174E-04 delta_en =   0.296210E-03 tol =   0.100000E-04
 Iteration #         26
  pAp =   2.215698421195235E-007  rzold =   7.682425222920455E-008  alpha = 
  0.346727025186769     
 delta_qm =   0.111759E-04 delta_en =   0.971222E-04 tol =   0.100000E-04
 Iteration #         27
  pAp =   5.644975648899679E-008  rzold =   2.778445806408071E-008  alpha = 
  0.492198014521045     
 delta_qm =   0.663587E-05 delta_en =   0.342415E-04 tol =   0.100000E-04
 Iteration #         28
  pAp =   1.668576090681916E-008  rzold =   1.132633737811290E-008  alpha = 
  0.678802569530050     
 delta_qm =   0.292512E-05 delta_en =   0.665342E-05 tol =   0.100000E-04
 Charges are converged, EXIT

%%%% ELECTRONS %%%%%%%%%%%%%%%%%%%%%%%%%%%%%%%%%%%%%%%%%%%%%%%%%%%%%%%%%%%%%%%%%
 number of electrons        =         89
 total electronic charge    =     89.0000000
 number of spin components  =  1

%%%% BOUNDARY %%%%%%%%%%%%%%%%%%%%%%%%%%%%%%%%%%%%%%%%%%%%%%%%%%%%%%%%%%%%%%%%%%
 boundary mode              = full                 
 boundary is built as a function of a smooth density
 function type              =  2 
 using the modified SCCS function with parameters 
 rhomax                     =      0.0050000 
 rhomin                     =      0.0001000 
 volume of the QM region    =   1479.0897845 
 surface of the QM region   =    270.3070762 

%%%% DIELECTRIC %%%%%%%%%%%%%%%%%%%%%%%%%%%%%%%%%%%%%%%%%%%%%%%%%%%%%%%%%%%%%%%%%
 dielectric build on homogeneous background
 environment bulk permitt.  =    100.0000000 
 dielectric flags
 need gradient              =  F 
 need factor depend. sqrt   =  T 
 total dielectric charge    =      0.9879161

%%%% COMPUTE ELECTROSTATIC POTENTIAL %%%%%%%%%%%%%%%%%%%%%%%%%%%%%%%%%%%%%%%%%%%
 Warning: bad guess with residual norm =   0.723834E+04, reset to no guess
 Iteration #          1
  pAp =    1272.57737665147       rzold =    1269.95459468885       alpha = 
  0.997939000008374     
 delta_qm =   0.962841E-01 delta_en =   0.720884E+04 tol =   0.100000E-04
 Iteration #          2
  pAp =    1930.63016126033       rzold =    59.5854581860557       alpha = 
  3.086321729644885E-002
 delta_qm =   0.938020E-01 delta_en =   0.684196E+04 tol =   0.100000E-04
 Iteration #          3
  pAp =    39.5466274663995       rzold =    4.73374615995748       alpha = 
  0.119700375562479     
 delta_qm =   0.100239E+00 delta_en =   0.781322E+04 tol =   0.100000E-04
 Iteration #          4
  pAp =   -2.93019818044937       rzold =   0.851587483494311       alpha = 
 -0.290624534946545     
 delta_qm =   0.561992E-01 delta_en =   0.245593E+04 tol =   0.100000E-04
 Iteration #          5
  pAp =    1.28070907604131       rzold =  -0.633223175889918       alpha = 
 -0.494431707977911     
 delta_qm =   0.141846E-01 delta_en =   0.156455E+03 tol =   0.100000E-04
 Iteration #          6
  pAp =   0.649635240520503       rzold =   0.212006458993951       alpha = 
  0.326346918655592     
 delta_qm =   0.463975E-02 delta_en =   0.167396E+02 tol =   0.100000E-04
 Iteration #          7
  pAp =   3.962992726710027E-002  rzold =   1.541018849594055E-002  alpha = 
  0.388852303262582     
 delta_qm =   0.146573E-02 delta_en =   0.167056E+01 tol =   0.100000E-04
 Iteration #          8
  pAp =   4.494645411092259E-003  rzold =   1.934215347224210E-003  alpha = 
  0.430337695260853     
 delta_qm =   0.931307E-03 delta_en =   0.674438E+00 tol =   0.100000E-04
 Iteration #          9
  pAp =   1.203992524912518E-003  rzold =   3.983361217104146E-004  alpha = 
  0.330846008981125     
 delta_qm =   0.929551E-03 delta_en =   0.671897E+00 tol =   0.100000E-04
 Iteration #         10
  pAp =   2.588237053553731E-004  rzold =   1.350513776656048E-004  alpha = 
  0.521789059005144     
 delta_qm =   0.788158E-03 delta_en =   0.483039E+00 tol =   0.100000E-04
 Iteration #         11
  pAp =   8.324963225312263E-005  rzold =   8.656624565847944E-005  alpha = 
   1.03983937605001     
 delta_qm =   0.423799E-03 delta_en =   0.139661E+00 tol =   0.100000E-04
 Iteration #         12
  pAp =   1.555286378749155E-004  rzold =   8.069841391677186E-005  alpha = 
  0.518865303646997     
 delta_qm =   0.246465E-03 delta_en =   0.472352E-01 tol =   0.100000E-04
 Iteration #         13
  pAp =   6.792813725662706E-003  rzold =   2.558131418224822E-004  alpha = 
  3.765937830093009E-002
 delta_qm =   0.372747E-03 delta_en =   0.108040E+00 tol =   0.100000E-04
 Iteration #         14
  pAp =   5.729082722283965E-005  rzold =   3.142566264640070E-005  alpha = 
  0.548528694203817     
 delta_qm =   0.373844E-03 delta_en =   0.108677E+00 tol =   0.100000E-04
 Iteration #         15
  pAp =   2.238969511057181E-005  rzold =   1.934219794232504E-005  alpha = 
  0.863888402535333     
 delta_qm =   0.387921E-03 delta_en =   0.117016E+00 tol =   0.100000E-04
 Iteration #         16
  pAp =   6.026284332907950E-005  rzold =   4.860121089737123E-005  alpha = 
  0.806487185345252     
 delta_qm =   0.486252E-03 delta_en =   0.183856E+00 tol =   0.100000E-04
 Iteration #         17
  pAp =   5.200904047866875E-005  rzold =   6.822823692639632E-005  alpha = 
   1.31185340660880     
 delta_qm =   0.546989E-03 delta_en =   0.232655E+00 tol =   0.100000E-04
 Iteration #         18
  pAp =   1.999188403437081E-004  rzold =   1.039790804328638E-004  alpha = 
  0.520106460472155     
 delta_qm =   0.289756E-03 delta_en =   0.652860E-01 tol =   0.100000E-04
 Iteration #         19
  pAp =   8.333476874529668E-005  rzold =   3.607922688066422E-005  alpha = 
  0.432943265144664     
 delta_qm =   0.192422E-03 delta_en =   0.287915E-01 tol =   0.100000E-04
 Iteration #         20
  pAp =   1.438497376372762E-005  rzold =   7.205712439544296E-006  alpha = 
  0.500919400889964     
 delta_qm =   0.127861E-03 delta_en =   0.127125E-01 tol =   0.100000E-04
 Iteration #         21
  pAp =   1.975795082031711E-006  rzold =   1.740909444866755E-006  alpha = 
  0.881118421995755     
 delta_qm =   0.627498E-04 delta_en =   0.306183E-02 tol =   0.100000E-04
 Iteration #         22
  pAp =   1.541882568604490E-006  rzold =   9.561186783017852E-007  alpha = 
  0.620098247279064     
 delta_qm =   0.358533E-04 delta_en =   0.999574E-03 tol =   0.100000E-04
 Iteration #         23
  pAp =   2.072017957352224E-006  rzold =   3.455490156530482E-007  alpha = 
  0.166769315114728     
 delta_qm =   0.359116E-04 delta_en =   0.100282E-02 tol =   0.100000E-04
 Iteration #         24
  pAp =   1.285108381778508E-005  rzold =   1.179284298992688E-006  alpha = 
  9.176535735924729E-002
 delta_qm =   0.250639E-04 delta_en =   0.488486E-03 tol =   0.100000E-04
 Iteration #         25
  pAp =   2.885846410628587E-007  rzold =   8.840463478815966E-008  alpha = 
  0.306338668830624     
 delta_qm =   0.197495E-04 delta_en =   0.303298E-03 tol =   0.100000E-04
 Iteration #         26
  pAp =   2.286880295699722E-007  rzold =   8.170349109552177E-008  alpha = 
  0.357270519358438     
 delta_qm =   0.106049E-04 delta_en =   0.874514E-04 tol =   0.100000E-04
 Iteration #         27
  pAp =   6.207221164781543E-008  rzold =   2.952438694701003E-008  alpha = 
  0.475645802900099     
 delta_qm =   0.734681E-05 delta_en =   0.419715E-04 tol =   0.100000E-04
 Iteration #         28
  pAp =   1.562290288309250E-008  rzold =   1.091283620859676E-008  alpha = 
  0.698515268913750     
 delta_qm =   0.512666E-05 delta_en =   0.204374E-04 tol =   0.100000E-04
 Iteration #         29
  pAp =   1.078705337106177E-008  rzold =   3.124886292717741E-009  alpha = 
  0.289688591056833     
 delta_qm =   0.310746E-05 delta_en =   0.750875E-05 tol =   0.100000E-04
 Charges are converged, EXIT

%%%% ELECTRONS %%%%%%%%%%%%%%%%%%%%%%%%%%%%%%%%%%%%%%%%%%%%%%%%%%%%%%%%%%%%%%%%%
 number of electrons        =         89
 total electronic charge    =     89.0000000
 number of spin components  =  1

%%%% BOUNDARY %%%%%%%%%%%%%%%%%%%%%%%%%%%%%%%%%%%%%%%%%%%%%%%%%%%%%%%%%%%%%%%%%%
 boundary mode              = full                 
 boundary is built as a function of a smooth density
 function type              =  2 
 using the modified SCCS function with parameters 
 rhomax                     =      0.0050000 
 rhomin                     =      0.0001000 
 volume of the QM region    =   1477.9611178 
 surface of the QM region   =    270.1275504 

%%%% DIELECTRIC %%%%%%%%%%%%%%%%%%%%%%%%%%%%%%%%%%%%%%%%%%%%%%%%%%%%%%%%%%%%%%%%%
 dielectric build on homogeneous background
 environment bulk permitt.  =    100.0000000 
 dielectric flags
 need gradient              =  F 
 need factor depend. sqrt   =  T 
 total dielectric charge    =      0.9880887

%%%% COMPUTE ELECTROSTATIC POTENTIAL %%%%%%%%%%%%%%%%%%%%%%%%%%%%%%%%%%%%%%%%%%%
 Warning: bad guess with residual norm =   0.712125E+04, reset to no guess
 Iteration #          1
  pAp =    1272.51585313725       rzold =    1269.90706405691       alpha = 
  0.997949896597426     
 delta_qm =   0.955032E-01 delta_en =   0.709238E+04 tol =   0.100000E-04
 Iteration #          2
  pAp =    1905.03583734672       rzold =    58.9656920781032       alpha = 
  3.095253691407141E-002
 delta_qm =   0.918934E-01 delta_en =   0.656637E+04 tol =   0.100000E-04
 Iteration #          3
  pAp =    40.3501086374426       rzold =    4.81308739457353       alpha = 
  0.119283133481015     
 delta_qm =   0.975218E-01 delta_en =   0.739536E+04 tol =   0.100000E-04
 Iteration #          4
  pAp =   -2.88139058049156       rzold =   0.864147712643507       alpha = 
 -0.299906482132000     
 delta_qm =   0.539546E-01 delta_en =   0.226367E+04 tol =   0.100000E-04
 Iteration #          5
  pAp =    1.38410581757718       rzold =  -0.661571591949964       alpha = 
 -0.477977610922852     
 delta_qm =   0.135450E-01 delta_en =   0.142663E+03 tol =   0.100000E-04
 Iteration #          6
  pAp =   0.651667624519829       rzold =   0.212262179726211       alpha = 
  0.325721536162875     
 delta_qm =   0.439005E-02 delta_en =   0.149863E+02 tol =   0.100000E-04
 Iteration #          7
  pAp =   3.956193481592091E-002  rzold =   1.525695129586592E-002  alpha = 
  0.385647248216133     
 delta_qm =   0.144064E-02 delta_en =   0.161388E+01 tol =   0.100000E-04
 Iteration #          8
  pAp =   4.470003952390143E-003  rzold =   1.930795854676008E-003  alpha = 
  0.431944999431958     
 delta_qm =   0.909384E-03 delta_en =   0.643058E+00 tol =   0.100000E-04
 Iteration #          9
  pAp =   1.176788514383480E-003  rzold =   3.931361180703911E-004  alpha = 
  0.334075420744870     
 delta_qm =   0.909599E-03 delta_en =   0.643363E+00 tol =   0.100000E-04
 Iteration #         10
  pAp =   2.653592719780859E-004  rzold =   1.369374073204340E-004  alpha = 
  0.516045308308438     
 delta_qm =   0.779289E-03 delta_en =   0.472230E+00 tol =   0.100000E-04
 Iteration #         11
  pAp =   8.231822875417272E-005  rzold =   8.671855075932563E-005  alpha = 
   1.05345501320605     
 delta_qm =   0.416614E-03 delta_en =   0.134966E+00 tol =   0.100000E-04
 Iteration #         12
  pAp =   1.320886096401848E-004  rzold =   8.057354433382361E-005  alpha = 
  0.609996157528719     
 delta_qm =   0.333280E-03 delta_en =   0.863722E-01 tol =   0.100000E-04
 Iteration #         13
  pAp =   5.086327234362220E-004  rzold =   4.488654359192366E-005  alpha = 
  8.824942148566269E-002
 delta_qm =   0.410661E-03 delta_en =   0.131136E+00 tol =   0.100000E-04
 Iteration #         14
  pAp =   4.263250750670123E-004  rzold =   8.130224964819234E-005  alpha = 
  0.190704826910340     
 delta_qm =   0.364751E-03 delta_en =   0.103454E+00 tol =   0.100000E-04
 Iteration #         15
  pAp =   1.753923924380055E-005  rzold =   1.884173691132885E-005  alpha = 
   1.07426192490012     
 delta_qm =   0.378669E-03 delta_en =   0.111500E+00 tol =   0.100000E-04
 Iteration #         16
  pAp =   6.156824578504729E-005  rzold =   4.890215929779465E-005  alpha = 
  0.794275663927901     
 delta_qm =   0.459962E-03 delta_en =   0.164513E+00 tol =   0.100000E-04
 Iteration #         17
  pAp =   9.755751031743166E-005  rzold =   8.055100563127239E-005  alpha = 
  0.825677135150091     
 delta_qm =   0.520879E-03 delta_en =   0.210974E+00 tol =   0.100000E-04
 Iteration #         18
  pAp =   2.142593960121293E-004  rzold =   1.125755332670617E-004  alpha = 
  0.525417019567668     
 delta_qm =   0.313219E-03 delta_en =   0.762876E-01 tol =   0.100000E-04
 Iteration #         19
  pAp =   6.806610029252660E-005  rzold =   3.403287962205053E-005  alpha = 
  0.499997494726273     
 delta_qm =   0.176780E-03 delta_en =   0.243008E-01 tol =   0.100000E-04
 Iteration #         20
  pAp =   1.220553932865554E-005  rzold =   6.458333793856883E-006  alpha = 
  0.529131373875002     
 delta_qm =   0.120359E-03 delta_en =   0.112645E-01 tol =   0.100000E-04
 Iteration #         21
  pAp =   1.785233307734728E-006  rzold =   1.609874279420627E-006  alpha = 
  0.901772486792433     
 delta_qm =   0.591714E-04 delta_en =   0.272258E-02 tol =   0.100000E-04
 Iteration #         22
  pAp =   1.492490739434038E-006  rzold =   9.291551158899639E-007  alpha = 
  0.622553354161719     
 delta_qm =   0.335841E-04 delta_en =   0.877051E-03 tol =   0.100000E-04
 Iteration #         23
  pAp =   5.685653624869359E-007  rzold =   2.873378019399433E-007  alpha = 
  0.505373385186730     
 delta_qm =   0.240196E-04 delta_en =   0.448630E-03 tol =   0.100000E-04
 Iteration #         24
  pAp =   3.456825782145476E-006  rzold =   1.869325762463884E-007  alpha = 
  5.407636601528956E-002
 delta_qm =   0.239341E-04 delta_en =   0.445441E-03 tol =   0.100000E-04
 Iteration #         25
  pAp =   8.216101954377042E-007  rzold =   1.365656832085320E-007  alpha = 
  0.166217123359549     
 delta_qm =   0.186583E-04 delta_en =   0.270707E-03 tol =   0.100000E-04
 Iteration #         26
  pAp =   2.092632368301033E-007  rzold =   7.551692555601229E-008  alpha = 
  0.360870483989135     
 delta_qm =   0.970530E-05 delta_en =   0.732443E-04 tol =   0.100000E-04
 Iteration #         27
  pAp =   5.861078342131465E-008  rzold =   2.723207706237416E-008  alpha = 
  0.464625713439463     
 delta_qm =   0.585243E-05 delta_en =   0.266335E-04 tol =   0.100000E-04
 Iteration #         28
  pAp =   1.393648006961085E-008  rzold =   8.881283592424137E-009  alpha = 
  0.637268775764276     
 delta_qm =   0.312320E-05 delta_en =   0.758499E-05 tol =   0.100000E-04
 Charges are converged, EXIT

%%%% ELECTRONS %%%%%%%%%%%%%%%%%%%%%%%%%%%%%%%%%%%%%%%%%%%%%%%%%%%%%%%%%%%%%%%%%
 number of electrons        =         89
 total electronic charge    =     89.0000000
 number of spin components  =  1

%%%% BOUNDARY %%%%%%%%%%%%%%%%%%%%%%%%%%%%%%%%%%%%%%%%%%%%%%%%%%%%%%%%%%%%%%%%%%
 boundary mode              = full                 
 boundary is built as a function of a smooth density
 function type              =  2 
 using the modified SCCS function with parameters 
 rhomax                     =      0.0050000 
 rhomin                     =      0.0001000 
 volume of the QM region    =   1477.9611178 
 surface of the QM region   =    270.1275504 

%%%% DIELECTRIC %%%%%%%%%%%%%%%%%%%%%%%%%%%%%%%%%%%%%%%%%%%%%%%%%%%%%%%%%%%%%%%%%
 dielectric build on homogeneous background
 environment bulk permitt.  =    100.0000000 
 dielectric flags
 need gradient              =  F 
 need factor depend. sqrt   =  T 
 total dielectric charge    =      0.9880679
