
     Program PWSCF v.6.1 (svn rev. 13369) starts on  4Oct2017 at 12:51:21 

     This program is part of the open-source Quantum ESPRESSO suite
     for quantum simulation of materials; please cite
         "P. Giannozzi et al., J. Phys.:Condens. Matter 21 395502 (2009);
          URL http://www.quantum-espresso.org", 
     in publications or presentations arising from this work. More details at
     http://www.quantum-espresso.org/quote

     Serial version
     Reading input from neutral.in

     Current dimensions of program PWSCF are:
     Max number of different atomic species (ntypx) = 10
     Max number of k-points (npk) =  40000
     Max angular momentum in pseudopotentials (lmaxx) =  3
     Message from routine  environ_checkin    :
      use some old legacy code for environ
               file C.pbe-rrkjus.UPF: wavefunction(s)  2S 2P renormalized
               file O.pbe-rrkjus.UPF: wavefunction(s)  2S renormalized

     gamma-point specific algorithms are used

     G-vector sticks info
     --------------------
     sticks:   dense  smooth     PW     G-vecs:    dense   smooth      PW
     Sum        2205    1099    269               330909   116965   14571



     bravais-lattice index     =            8
     lattice parameter (alat)  =      10.6881  a.u.
     unit-cell volume          =    4181.1215 (a.u.)^3
     number of atoms/cell      =           10
     number of atomic types    =            3
     number of electrons       =        90.00
     number of Kohn-Sham states=           80
     kinetic-energy cutoff     =      35.0000  Ry
     charge density cutoff     =     280.0000  Ry
     convergence threshold     =      5.0E-02
     mixing beta               =       0.7000
     number of iterations used =            8  plain     mixing
     Exchange-correlation      = PBE ( 1  4  3  4 0 0)


     Environ Module
     ==============

     Plese cite
         O. Andreussi, I. Dabo and N. Marzari, J. Chem. Phys. 136, 064102 (2012)         
     in publications or presentations arising from this work.

     compensation onset threshold      =               0.1000E+03 
     switching function adopted        =                     SCCS 
     density limit for vacuum region   =               0.5000E-02 
     density limit for bulk solvent    =               0.1000E-03 
     static permittivity               =                   100.00 
     epsilon calculation mode          =               electronic 

     Electrostatic Setup
     -------------------
     electrostatic problem to solve    = generalized              
     numerical solver adopted          = iterative                
     type of auxiliary density adopted = full                     
     type of core tool for poisson     = fft                      
     type of core tool for s(r) deriv  = fd                       
     type of numerical differentiator  =            central diff. 
     number of points in num. diff.    =                        2 



     celldm(1)=  10.688100  celldm(2)=   0.866025  celldm(3)=   3.954220
     celldm(4)=   0.000000  celldm(5)=   0.000000  celldm(6)=   0.000000

     crystal axes: (cart. coord. in units of alat)
               a(1) = (   1.000000   0.000000   0.000000 )  
               a(2) = (   0.000000   0.866025   0.000000 )  
               a(3) = (   0.000000   0.000000   3.954220 )  

     reciprocal axes: (cart. coord. in units 2 pi/alat)
               b(1) = (  1.000000  0.000000  0.000000 )  
               b(2) = (  0.000000  1.154701  0.000000 )  
               b(3) = (  0.000000  0.000000  0.252894 )  


     PseudoPot. # 1 for C  read from file:
     ../../../pseudo/C.pbe-rrkjus.UPF
     MD5 check sum: 00fb224312de0c5b6853bd333518df6f
     Pseudo is Ultrasoft, Zval =  4.0
     Generated by new atomic code, or converted to UPF format
     Using radial grid of  627 points,  4 beta functions with: 
                l(1) =   0
                l(2) =   0
                l(3) =   1
                l(4) =   1
     Q(r) pseudized with 0 coefficients 


     PseudoPot. # 2 for O  read from file:
     ../../../pseudo/O.pbe-rrkjus.UPF
     MD5 check sum: 390ba29e75625707450f3bd3f0eb6be9
     Pseudo is Ultrasoft, Zval =  6.0
     Generated by new atomic code, or converted to UPF format
     Using radial grid of 1269 points,  4 beta functions with: 
                l(1) =   0
                l(2) =   0
                l(3) =   1
                l(4) =   1
     Q(r) pseudized with 0 coefficients 


     PseudoPot. # 3 for Pt read from file:
     ../../../pseudo/Pt.pbe-n-rrkjus.UPF
     MD5 check sum: df5be8f5ed4f66d4aed38ca70ec8d507
     Pseudo is Ultrasoft + core correction, Zval = 10.0
     Generated using "atomic" code by A. Dal Corso  v.5.0.2 svn rev. 9415
     Using radial grid of 1277 points,  6 beta functions with: 
                l(1) =   0
                l(2) =   0
                l(3) =   1
                l(4) =   1
                l(5) =   2
                l(6) =   2
     Q(r) pseudized with 0 coefficients 


     atomic species   valence    mass     pseudopotential
        C              4.00     1.00000     C ( 1.00)
        O              6.00     1.00000     O ( 1.00)
        Pt            10.00     1.00000     Pt( 1.00)

     No symmetry found



   Cartesian axes

     site n.     atom                  positions (alat units)
         1           C   tau(   1) = (   0.4991611   0.4347567   1.2070461  )
         2           O   tau(   2) = (   0.4991542   0.4322212   1.4109013  )
         3           Pt  tau(   3) = (   0.7542339   0.0091745   0.8413229  )
         4           Pt  tau(   4) = (   0.2441023   0.0091745   0.8413226  )
         5           Pt  tau(   5) = (   0.0000034   0.4416918   0.8391348  )
         6           Pt  tau(   6) = (   0.4991682   0.4417635   0.8776299  )
         7           Pt  tau(   7) = (   0.0000038   0.7300598   0.4308181  )
         8           Pt  tau(   8) = (   0.4991683   0.7202168   0.4447460  )
         9           Pt  tau(   9) = (   0.2524172   0.2949237   0.4386572  )
        10           Pt  tau(  10) = (   0.7459196   0.2949237   0.4386575  )

     number of k points=     1  Marzari-Vanderbilt smearing, width (Ry)=  0.0300
                       cart. coord. in units 2pi/alat
        k(    1) = (   0.0000000   0.0000000   0.0000000), wk =   2.0000000

     Dense  grid:   165455 G-vectors     FFT dimensions: (  60,  50, 225)

     Smooth grid:    58483 G-vectors     FFT dimensions: (  45,  36, 160)

     Estimated max dynamical RAM per process >     216.67MB

     Initial potential from superposition of free atoms
     Check: negative starting charge=   -0.001782

     starting charge   89.99859, renormalised to   90.00000

     negative rho (up, down):  1.782E-03 0.000E+00
     Starting wfc are   80 randomized atomic wfcs

     total cpu time spent up to now is       22.3 secs

     Self-consistent Calculation

     iteration #  1     ecut=    35.00 Ry     beta=0.70
     Davidson diagonalization with overlap
     ethr =  1.00E-02,  avg # of iterations =  8.0

     negative rho (up, down):  1.109E-03 0.000E+00

     add environment contribution to local potential
 Warning: Polarization charge not converged
     polarization accuracy = 1.2E-11, # of iterations = 201

     total cpu time spent up to now is      155.1 secs

     total energy              =    -623.07845200 Ry
     Harris-Foulkes estimate   =    -624.45738907 Ry
     estimated scf accuracy    <       1.79975746 Ry
     electrostatic embedding   =       0.00000000 Ry
     correction to one-el term =       0.00000000 Ry

     iteration #  2     ecut=    35.00 Ry     beta=0.70
     Davidson diagonalization with overlap
     ethr =  2.00E-03,  avg # of iterations =  8.0

     negative rho (up, down):  1.489E-02 0.000E+00

     add environment contribution to local potential
 Warning: Polarization charge not converged
     polarization accuracy = 3.9E-11, # of iterations = 201

     total cpu time spent up to now is      276.5 secs

     total energy              =    -634.35904417 Ry
     Harris-Foulkes estimate   =    -635.20285898 Ry
     estimated scf accuracy    <      22.79194808 Ry
     electrostatic embedding   =       0.13630789 Ry
     correction to one-el term =      -4.81172417 Ry

     iteration #  3     ecut=    35.00 Ry     beta=0.70
     Davidson diagonalization with overlap
     ethr =  2.00E-03,  avg # of iterations =  3.0

     negative rho (up, down):  9.649E-03 0.000E+00

     add environment contribution to local potential
 Warning: Polarization charge not converged
     polarization accuracy = 1.7E-11, # of iterations = 201

     total cpu time spent up to now is      399.3 secs

     total energy              =    -635.31834556 Ry
     Harris-Foulkes estimate   =    -635.96708557 Ry
     estimated scf accuracy    <       1.58805242 Ry
     electrostatic embedding   =       0.08382450 Ry
     correction to one-el term =      -0.00169605 Ry

     iteration #  4     ecut=    35.00 Ry     beta=0.70
     Davidson diagonalization with overlap
     ethr =  1.76E-03,  avg # of iterations =  7.0

     negative rho (up, down):  8.943E-03 0.000E+00

     add environment contribution to local potential
 Warning: Polarization charge not converged
     polarization accuracy = 7.7E-11, # of iterations = 201

     total cpu time spent up to now is      520.4 secs

     total energy              =    -633.26628622 Ry
     Harris-Foulkes estimate   =    -634.10616534 Ry
     estimated scf accuracy    <       1.40087051 Ry
     electrostatic embedding   =       0.10152354 Ry
     correction to one-el term =       0.32779694 Ry

     iteration #  5     ecut=    35.00 Ry     beta=0.70
     Davidson diagonalization with overlap
     ethr =  1.56E-03,  avg # of iterations =  6.0

     negative rho (up, down):  9.329E-03 0.000E+00

     add environment contribution to local potential
 Warning: Polarization charge not converged
     polarization accuracy = 5.7E-11, # of iterations = 201

     total cpu time spent up to now is      671.8 secs

     total energy              =    -633.82479820 Ry
     Harris-Foulkes estimate   =    -634.24317017 Ry
     estimated scf accuracy    <       2.42715347 Ry
     electrostatic embedding   =       0.10967257 Ry
     correction to one-el term =      -0.04405868 Ry

     iteration #  6     ecut=    35.00 Ry     beta=0.70
     Davidson diagonalization with overlap
     ethr =  1.56E-03,  avg # of iterations =  2.0

     negative rho (up, down):  5.118E-03 0.000E+00

     add environment contribution to local potential
 Warning: Polarization charge not converged
     polarization accuracy = 5.0E-11, # of iterations = 201

     total cpu time spent up to now is      825.8 secs

     total energy              =    -633.89414341 Ry
     Harris-Foulkes estimate   =    -633.53967919 Ry
     estimated scf accuracy    <       0.71249823 Ry
     electrostatic embedding   =       0.10088929 Ry
     correction to one-el term =      -0.52409720 Ry

     iteration #  7     ecut=    35.00 Ry     beta=0.70
     Davidson diagonalization with overlap
     WARNING:     2 eigenvalues not converged in regterg
     c_bands:  2 eigenvalues not converged
     ethr =  7.92E-04,  avg # of iterations = 20.0

     negative rho (up, down):  2.778E-03 0.000E+00

     add environment contribution to local potential
 Warning: Polarization charge not converged
     polarization accuracy = 2.0E-10, # of iterations = 201

     total cpu time spent up to now is     1094.1 secs

     total energy              =    -629.10943957 Ry
     Harris-Foulkes estimate   =    -633.41443695 Ry
     estimated scf accuracy    <       0.20534420 Ry
     electrostatic embedding   =       0.09739012 Ry
     correction to one-el term =       4.17122709 Ry

     iteration #  8     ecut=    35.00 Ry     beta=0.70
     Davidson diagonalization with overlap
     ethr =  2.28E-04,  avg # of iterations =  5.0

     negative rho (up, down):  4.289E-03 0.000E+00

     add environment contribution to local potential
 Warning: Polarization charge not converged
     polarization accuracy = 1.0E-10, # of iterations = 201

     total cpu time spent up to now is     1332.8 secs

     total energy              =    -630.22238390 Ry
     Harris-Foulkes estimate   =    -633.23507824 Ry
     estimated scf accuracy    <       0.12532507 Ry
     electrostatic embedding   =       0.09444681 Ry
     correction to one-el term =       2.89578660 Ry

     iteration #  9     ecut=    35.00 Ry     beta=0.70
     Davidson diagonalization with overlap
     ethr =  1.39E-04,  avg # of iterations = 18.0

     negative rho (up, down):  2.623E-03 0.000E+00

     total cpu time spent up to now is     1342.0 secs

     End of self-consistent calculation

          k = 0.0000 0.0000 0.0000 (  7286 PWs)   bands (ev):

   -25.2201 -11.2578  -9.2118  -8.5974  -7.8767  -7.8492  -7.6719  -6.8992
    -6.6935  -5.8047  -5.7888  -5.6555  -5.3834  -5.3128  -5.1924  -5.1503
    -4.5741  -4.5425  -4.4427  -4.2204  -4.1374  -4.1227  -4.0025  -3.9916
    -3.8781  -3.8611  -3.7151  -3.6843  -3.6621  -3.2914  -3.1702  -2.5456
    -2.2995  -2.1127  -1.8449  -1.7792  -1.7468  -1.6071  -1.4925  -1.2773
    -1.1018  -1.0363  -0.8973  -0.8206  -0.7642  -0.5985  -0.4902   0.4740
     0.7868   1.0818   1.4577   2.0488   2.1418   2.3888   2.6821   2.8660
     3.4197   3.5945   3.7560   4.8383   5.0336   5.6477   6.2566   6.3870
     6.7988   6.9663   7.2519   7.3499   7.6701   7.8091   7.8380   7.8888
     8.3299   8.4325   8.5847   8.5949   8.7222   8.9077   9.0152   9.5614

     the Fermi energy is    -0.6332 ev

!    total energy              =    -630.93431946 Ry
     Harris-Foulkes estimate   =    -633.13576210 Ry
     estimated scf accuracy    <       0.03420919 Ry

     The total energy is the sum of the following terms:

     one-electron contribution =   -3988.67490000 Ry
     hartree contribution      =    2046.50931595 Ry
     xc contribution           =    -264.14894417 Ry
     ewald contribution        =    1573.20467954 Ry
     smearing contrib. (-TS)   =       0.00018910 Ry
     electrostatic embedding   =       0.09212559 Ry
     correction to one-el term =       2.08321455 Ry

     convergence has been achieved in   9 iterations

     negative rho (up, down):  2.623E-03 0.000E+00

     Forces acting on atoms (cartesian axes, Ry/au):

     atom    1 type  1   force =    -0.14191091   -0.09187692    0.03304153
     atom    2 type  2   force =    -0.14872855   -0.08893557   -0.00778814
     atom    3 type  3   force =     0.13489245    0.14215655   -0.09719762
     atom    4 type  3   force =    -0.14079369    0.13719305   -0.05445832
     atom    5 type  3   force =     0.32502416   -0.06728052   -0.10503052
     atom    6 type  3   force =    -0.15746304   -0.06744545   -0.00096022
     atom    7 type  3   force =     0.32368644    0.11700432    0.08230420
     atom    8 type  3   force =    -0.15242898    0.09476835    0.05637978
     atom    9 type  3   force =    -0.12333461   -0.07844804    0.04279183
     atom   10 type  3   force =     0.08105673   -0.09713578    0.05091747

     Total force =     0.708656     Total SCF correction =     0.340309
     SCF correction compared to forces is large: reduce conv_thr to get better values

     Writing output data file pwscf.save

     init_run     :     20.89s CPU     21.78s WALL (       1 calls)
     electrons    :   1152.75s CPU   1319.89s WALL (       1 calls)
     forces       :      9.93s CPU     10.45s WALL (       1 calls)

     Called by init_run:
     wfcinit      :      0.78s CPU      0.73s WALL (       1 calls)
     potinit      :      3.56s CPU      3.70s WALL (       1 calls)

     Called by electrons:
     c_bands      :     30.91s CPU     27.26s WALL (       9 calls)
     sum_band     :     18.07s CPU     19.96s WALL (       9 calls)
     v_of_rho     :      6.30s CPU      7.27s WALL (      10 calls)
     newd         :     10.66s CPU     14.07s WALL (      10 calls)
     mix_rho      :      0.62s CPU      0.96s WALL (       9 calls)

     Called by c_bands:
     init_us_2    :      0.22s CPU      0.27s WALL (      19 calls)
     regterg      :     29.58s CPU     25.85s WALL (       9 calls)

     Called by sum_band:
     sum_band:bec :      0.00s CPU      0.00s WALL (       9 calls)
     addusdens    :     14.25s CPU     15.88s WALL (       9 calls)

     Called by *egterg:
     h_psi        :     18.95s CPU     19.02s WALL (      87 calls)
     s_psi        :      1.84s CPU      0.76s WALL (      87 calls)
     g_psi        :      0.20s CPU      0.22s WALL (      77 calls)
     rdiaghg      :      1.76s CPU      1.84s WALL (      86 calls)

     Called by h_psi:
     h_psi:pot    :     18.77s CPU     18.81s WALL (      87 calls)
     h_psi:calbec :      1.23s CPU      0.81s WALL (      87 calls)
     vloc_psi     :     15.65s CPU     17.23s WALL (      87 calls)
     add_vuspsi   :      1.88s CPU      0.77s WALL (      87 calls)

     General routines
     calbec       :      1.67s CPU      1.06s WALL (     100 calls)
     fft          :    152.59s CPU    170.12s WALL (    6668 calls)
     ffts         :      0.16s CPU      0.18s WALL (      19 calls)
     fftw         :     14.27s CPU     15.69s WALL (    2750 calls)
     interpolate  :      0.73s CPU      0.88s WALL (      19 calls)
     davcio       :      0.04s CPU      0.05s WALL (       1 calls)


     Environ routines
     calc_eelect  :      0.02s CPU      0.02s WALL (      18 calls)
     calc_velect  :   1080.05s CPU   1243.26s WALL (      16 calls)
     dielectric   :      0.58s CPU      0.68s WALL (      10 calls)
     calc_felect  :      0.89s CPU      0.93s WALL (       1 calls)

     PWSCF        : 19m44.13s CPU    22m33.00s WALL


   This run was terminated on:  13:13:54   4Oct2017            

=------------------------------------------------------------------------------=
   JOB DONE.
=------------------------------------------------------------------------------=

%%%% IONS %%%%%%%%%%%%%%%%%%%%%%%%%%%%%%%%%%%%%%%%%%%%%%%%%%%%%%%%%%%%%%%%%%%%%%
 number of ions             =         10
 ionic center of charge     =      0.3882415     0.3750182     0.7201831
 total ionic charge         =    -90.0000000
 ionic dipole               =      0.0000000     0.0000000     0.0000000
 ionic quadrupole (pc)      =   -730.5101255  -614.6110457  -876.7220256
 ionic quadrupole (gauss)   =   -741.7601255  -625.8610457  -887.9720256
 ion   1 type =  1 coordinates =      5.3350841     4.6467234    12.9010299
 ion   2 type =  2 coordinates =      5.3350096     4.6196233    15.0798543
 ion   3 type =  3 coordinates =      8.0613271     0.0980580     8.9921429
 ion   4 type =  3 coordinates =      2.6089894     0.0980583     8.9921406
 ion   5 type =  3 coordinates =      0.0000366     4.7208463     8.9687569
 ion   6 type =  3 coordinates =      5.3351596     4.7216127     9.3801964
 ion   7 type =  3 coordinates =      0.0000411     7.8029520     4.6046265
 ion   8 type =  3 coordinates =      5.3351612     7.6977491     4.7534894
 ion   9 type =  3 coordinates =      2.6978606     3.1521739     4.6884123
 ion  10 type =  3 coordinates =      7.9724637     3.1521745     4.6884152

%%%% SYSTEM %%%%%%%%%%%%%%%%%%%%%%%%%%%%%%%%%%%%%%%%%%%%%%%%%%%%%%%%%%%%%%%%%%%%
 system is built from all present ionic types
 system defined dimension   =  0 
 system defined axis        =  3 
 system center              =      0.3882415     0.3750182     0.7201831 
 system width               =      1.5145225 

%%%% ELECTRONS %%%%%%%%%%%%%%%%%%%%%%%%%%%%%%%%%%%%%%%%%%%%%%%%%%%%%%%%%%%%%%%%%
 number of electrons        =         90
 total electronic charge    =     90.0000000
 number of spin components  =  1

%%%% BOUNDARY %%%%%%%%%%%%%%%%%%%%%%%%%%%%%%%%%%%%%%%%%%%%%%%%%%%%%%%%%%%%%%%%%%
 boundary mode              = electronic           
 boundary is built as a function of a smooth density
 function type              =  1 
 using the optimal SCCS function with parameters 
 rhomax                     =      0.0050000 
 rhomin                     =      0.0001000 

%%%% DIELECTRIC %%%%%%%%%%%%%%%%%%%%%%%%%%%%%%%%%%%%%%%%%%%%%%%%%%%%%%%%%%%%%%%%%
 dielectric build on homogeneous background
 environment bulk permitt.  =    100.0000000 
 dielectric flags
 need gradient              =  F 
 need factor depend. sqrt   =  F 
 need gradient of logarithm =  T 

%%%% COMPUTE ELECTROSTATIC POTENTIAL %%%%%%%%%%%%%%%%%%%%%%%%%%%%%%%%%%%%%%%%%%%
 Starting from polarization: rhoiter =      0.000000 jellium =      0.000000
 Iteration #          1
 delta_qm =   0.116636E-02 delta_en =   0.141965E-05 tol =   0.100000E-10
 Iteration #          2
 delta_qm =   0.842324E-03 delta_en =   0.102524E-05 tol =   0.100000E-10
 Iteration #          3
 delta_qm =   0.648892E-03 delta_en =   0.789806E-06 tol =   0.100000E-10
 Iteration #          4
 delta_qm =   0.584837E-03 delta_en =   0.711841E-06 tol =   0.100000E-10
 Iteration #          5
 delta_qm =   0.416479E-03 delta_en =   0.506923E-06 tol =   0.100000E-10
 Iteration #          6
 delta_qm =   0.299595E-03 delta_en =   0.364656E-06 tol =   0.100000E-10
 Iteration #          7
 delta_qm =   0.265419E-03 delta_en =   0.323058E-06 tol =   0.100000E-10
 Iteration #          8
 delta_qm =   0.169975E-03 delta_en =   0.206887E-06 tol =   0.100000E-10
 Iteration #          9
 delta_qm =   0.142457E-03 delta_en =   0.173393E-06 tol =   0.100000E-10
 Iteration #         10
 delta_qm =   0.121125E-03 delta_en =   0.147429E-06 tol =   0.100000E-10
 Iteration #         11
 delta_qm =   0.873776E-04 delta_en =   0.106353E-06 tol =   0.100000E-10
 Iteration #         12
 delta_qm =   0.958281E-04 delta_en =   0.116638E-06 tol =   0.100000E-10
 Iteration #         13
 delta_qm =   0.899963E-04 delta_en =   0.109540E-06 tol =   0.100000E-10
 Iteration #         14
 delta_qm =   0.645771E-04 delta_en =   0.786007E-07 tol =   0.100000E-10
 Iteration #         15
 delta_qm =   0.555796E-04 delta_en =   0.676494E-07 tol =   0.100000E-10
 Iteration #         16
 delta_qm =   0.634376E-04 delta_en =   0.772137E-07 tol =   0.100000E-10
 Iteration #         17
 delta_qm =   0.636447E-04 delta_en =   0.774658E-07 tol =   0.100000E-10
 Iteration #         18
 delta_qm =   0.520661E-04 delta_en =   0.633729E-07 tol =   0.100000E-10
 Iteration #         19
 delta_qm =   0.395460E-04 delta_en =   0.481339E-07 tol =   0.100000E-10
 Iteration #         20
 delta_qm =   0.408894E-04 delta_en =   0.497690E-07 tol =   0.100000E-10
 Iteration #         21
 delta_qm =   0.478585E-04 delta_en =   0.582516E-07 tol =   0.100000E-10
 Iteration #         22
 delta_qm =   0.465406E-04 delta_en =   0.566474E-07 tol =   0.100000E-10
 Iteration #         23
 delta_qm =   0.367018E-04 delta_en =   0.446720E-07 tol =   0.100000E-10
 Iteration #         24
 delta_qm =   0.299897E-04 delta_en =   0.365024E-07 tol =   0.100000E-10
 Iteration #         25
 delta_qm =   0.348205E-04 delta_en =   0.423821E-07 tol =   0.100000E-10
 Iteration #         26
 delta_qm =   0.392288E-04 delta_en =   0.477477E-07 tol =   0.100000E-10
 Iteration #         27
 delta_qm =   0.353495E-04 delta_en =   0.430260E-07 tol =   0.100000E-10
 Iteration #         28
 delta_qm =   0.268172E-04 delta_en =   0.326409E-07 tol =   0.100000E-10
 Iteration #         29
 delta_qm =   0.249074E-04 delta_en =   0.303164E-07 tol =   0.100000E-10
 Iteration #         30
 delta_qm =   0.300726E-04 delta_en =   0.366032E-07 tol =   0.100000E-10
 Iteration #         31
 delta_qm =   0.314512E-04 delta_en =   0.382812E-07 tol =   0.100000E-10
 Iteration #         32
 delta_qm =   0.261872E-04 delta_en =   0.318740E-07 tol =   0.100000E-10
 Iteration #         33
 delta_qm =   0.201063E-04 delta_en =   0.244726E-07 tol =   0.100000E-10
 Iteration #         34
 delta_qm =   0.215113E-04 delta_en =   0.261827E-07 tol =   0.100000E-10
 Iteration #         35
 delta_qm =   0.253736E-04 delta_en =   0.308837E-07 tol =   0.100000E-10
 Iteration #         36
 delta_qm =   0.244251E-04 delta_en =   0.297293E-07 tol =   0.100000E-10
 Iteration #         37
 delta_qm =   0.190665E-04 delta_en =   0.232070E-07 tol =   0.100000E-10
 Iteration #         38
 delta_qm =   0.159058E-04 delta_en =   0.193600E-07 tol =   0.100000E-10
 Iteration #         39
 delta_qm =   0.187201E-04 delta_en =   0.227854E-07 tol =   0.100000E-10
 Iteration #         40
 delta_qm =   0.207938E-04 delta_en =   0.253094E-07 tol =   0.100000E-10
 Iteration #         41
 delta_qm =   0.184203E-04 delta_en =   0.224205E-07 tol =   0.100000E-10
 Iteration #         42
 delta_qm =   0.139321E-04 delta_en =   0.169576E-07 tol =   0.100000E-10
 Iteration #         43
 delta_qm =   0.133275E-04 delta_en =   0.162217E-07 tol =   0.100000E-10
 Iteration #         44
 delta_qm =   0.160766E-04 delta_en =   0.195678E-07 tol =   0.100000E-10
 Iteration #         45
 delta_qm =   0.165339E-04 delta_en =   0.201244E-07 tol =   0.100000E-10
 Iteration #         46
 delta_qm =   0.135638E-04 delta_en =   0.165093E-07 tol =   0.100000E-10
 Iteration #         47
 delta_qm =   0.105286E-04 delta_en =   0.128150E-07 tol =   0.100000E-10
 Iteration #         48
 delta_qm =   0.115419E-04 delta_en =   0.140484E-07 tol =   0.100000E-10
 Iteration #         49
 delta_qm =   0.134786E-04 delta_en =   0.164056E-07 tol =   0.100000E-10
 Iteration #         50
 delta_qm =   0.127572E-04 delta_en =   0.155276E-07 tol =   0.100000E-10
 Iteration #         51
 delta_qm =   0.986213E-05 delta_en =   0.120038E-07 tol =   0.100000E-10
 Iteration #         52
 delta_qm =   0.843194E-05 delta_en =   0.102630E-07 tol =   0.100000E-10
 Iteration #         53
 delta_qm =   0.100298E-04 delta_en =   0.122079E-07 tol =   0.100000E-10
 Iteration #         54
 delta_qm =   0.109800E-04 delta_en =   0.133644E-07 tol =   0.100000E-10
 Iteration #         55
 delta_qm =   0.957053E-05 delta_en =   0.116489E-07 tol =   0.100000E-10
 Iteration #         56
 delta_qm =   0.723728E-05 delta_en =   0.880894E-08 tol =   0.100000E-10
 Iteration #         57
 delta_qm =   0.713058E-05 delta_en =   0.867907E-08 tol =   0.100000E-10
 Iteration #         58
 delta_qm =   0.857783E-05 delta_en =   0.104406E-07 tol =   0.100000E-10
 Iteration #         59
 delta_qm =   0.867785E-05 delta_en =   0.105623E-07 tol =   0.100000E-10
 Iteration #         60
 delta_qm =   0.702116E-05 delta_en =   0.854588E-08 tol =   0.100000E-10
 Iteration #         61
 delta_qm =   0.552628E-05 delta_en =   0.672637E-08 tol =   0.100000E-10
 Iteration #         62
 delta_qm =   0.619282E-05 delta_en =   0.753765E-08 tol =   0.100000E-10
 Iteration #         63
 delta_qm =   0.715194E-05 delta_en =   0.870506E-08 tol =   0.100000E-10
 Iteration #         64
 delta_qm =   0.665632E-05 delta_en =   0.810182E-08 tol =   0.100000E-10
 Iteration #         65
 delta_qm =   0.510354E-05 delta_en =   0.621183E-08 tol =   0.100000E-10
 Iteration #         66
 delta_qm =   0.448060E-05 delta_en =   0.545361E-08 tol =   0.100000E-10
 Iteration #         67
 delta_qm =   0.537056E-05 delta_en =   0.653684E-08 tol =   0.100000E-10
 Iteration #         68
 delta_qm =   0.579110E-05 delta_en =   0.704870E-08 tol =   0.100000E-10
 Iteration #         69
 delta_qm =   0.496806E-05 delta_en =   0.604693E-08 tol =   0.100000E-10
 Iteration #         70
 delta_qm =   0.376579E-05 delta_en =   0.458357E-08 tol =   0.100000E-10
 Iteration #         71
 delta_qm =   0.381922E-05 delta_en =   0.464861E-08 tol =   0.100000E-10
 Iteration #         72
 delta_qm =   0.457205E-05 delta_en =   0.556493E-08 tol =   0.100000E-10
 Iteration #         73
 delta_qm =   0.454907E-05 delta_en =   0.553695E-08 tol =   0.100000E-10
 Iteration #         74
 delta_qm =   0.363293E-05 delta_en =   0.442186E-08 tol =   0.100000E-10
 Iteration #         75
 delta_qm =   0.290803E-05 delta_en =   0.353954E-08 tol =   0.100000E-10
 Iteration #         76
 delta_qm =   0.332241E-05 delta_en =   0.404391E-08 tol =   0.100000E-10
 Iteration #         77
 delta_qm =   0.379040E-05 delta_en =   0.461353E-08 tol =   0.100000E-10
 Iteration #         78
 delta_qm =   0.346918E-05 delta_en =   0.422255E-08 tol =   0.100000E-10
 Iteration #         79
 delta_qm =   0.264255E-05 delta_en =   0.321640E-08 tol =   0.100000E-10
 Iteration #         80
 delta_qm =   0.238591E-05 delta_en =   0.290403E-08 tol =   0.100000E-10
 Iteration #         81
 delta_qm =   0.287348E-05 delta_en =   0.349749E-08 tol =   0.100000E-10
 Iteration #         82
 delta_qm =   0.305059E-05 delta_en =   0.371306E-08 tol =   0.100000E-10
 Iteration #         83
 delta_qm =   0.257672E-05 delta_en =   0.313628E-08 tol =   0.100000E-10
 Iteration #         84
 delta_qm =   0.196317E-05 delta_en =   0.238949E-08 tol =   0.100000E-10
 Iteration #         85
 delta_qm =   0.204726E-05 delta_en =   0.249184E-08 tol =   0.100000E-10
 Iteration #         86
 delta_qm =   0.243429E-05 delta_en =   0.296293E-08 tol =   0.100000E-10
 Iteration #         87
 delta_qm =   0.238182E-05 delta_en =   0.289906E-08 tol =   0.100000E-10
 Iteration #         88
 delta_qm =   0.187929E-05 delta_en =   0.228740E-08 tol =   0.100000E-10
 Iteration #         89
 delta_qm =   0.153420E-05 delta_en =   0.186736E-08 tol =   0.100000E-10
 Iteration #         90
 delta_qm =   0.178197E-05 delta_en =   0.216894E-08 tol =   0.100000E-10
 Iteration #         91
 delta_qm =   0.200643E-05 delta_en =   0.244215E-08 tol =   0.100000E-10
 Iteration #         92
 delta_qm =   0.180613E-05 delta_en =   0.219835E-08 tol =   0.100000E-10
 Iteration #         93
 delta_qm =   0.136942E-05 delta_en =   0.166680E-08 tol =   0.100000E-10
 Iteration #         94
 delta_qm =   0.127285E-05 delta_en =   0.154927E-08 tol =   0.100000E-10
 Iteration #         95
 delta_qm =   0.153611E-05 delta_en =   0.186970E-08 tol =   0.100000E-10
 Iteration #         96
 delta_qm =   0.160499E-05 delta_en =   0.195354E-08 tol =   0.100000E-10
 Iteration #         97
 delta_qm =   0.133541E-05 delta_en =   0.162541E-08 tol =   0.100000E-10
 Iteration #         98
 delta_qm =   0.102560E-05 delta_en =   0.124832E-08 tol =   0.100000E-10
 Iteration #         99
 delta_qm =   0.109801E-05 delta_en =   0.133646E-08 tol =   0.100000E-10
 Iteration #        100
 delta_qm =   0.129464E-05 delta_en =   0.157578E-08 tol =   0.100000E-10
 Iteration #        101
 delta_qm =   0.124560E-05 delta_en =   0.151610E-08 tol =   0.100000E-10
 Iteration #        102
 delta_qm =   0.972070E-06 delta_en =   0.118317E-08 tol =   0.100000E-10
 Iteration #        103
 delta_qm =   0.811453E-06 delta_en =   0.987669E-09 tol =   0.100000E-10
 Iteration #        104
 delta_qm =   0.955342E-06 delta_en =   0.116281E-08 tol =   0.100000E-10
 Iteration #        105
 delta_qm =   0.106080E-05 delta_en =   0.129117E-08 tol =   0.100000E-10
 Iteration #        106
 delta_qm =   0.939333E-06 delta_en =   0.114332E-08 tol =   0.100000E-10
 Iteration #        107
 delta_qm =   0.710438E-06 delta_en =   0.864718E-09 tol =   0.100000E-10
 Iteration #        108
 delta_qm =   0.680141E-06 delta_en =   0.827841E-09 tol =   0.100000E-10
 Iteration #        109
 delta_qm =   0.820410E-06 delta_en =   0.998571E-09 tol =   0.100000E-10
 Iteration #        110
 delta_qm =   0.843390E-06 delta_en =   0.102654E-08 tol =   0.100000E-10
 Iteration #        111
 delta_qm =   0.691629E-06 delta_en =   0.841824E-09 tol =   0.100000E-10
 Iteration #        112
 delta_qm =   0.537036E-06 delta_en =   0.653660E-09 tol =   0.100000E-10
 Iteration #        113
 delta_qm =   0.589085E-06 delta_en =   0.717011E-09 tol =   0.100000E-10
 Iteration #        114
 delta_qm =   0.687738E-06 delta_en =   0.837088E-09 tol =   0.100000E-10
 Iteration #        115
 delta_qm =   0.650643E-06 delta_en =   0.791937E-09 tol =   0.100000E-10
 Iteration #        116
 delta_qm =   0.502868E-06 delta_en =   0.612072E-09 tol =   0.100000E-10
 Iteration #        117
 delta_qm =   0.430233E-06 delta_en =   0.523663E-09 tol =   0.100000E-10
 Iteration #        118
 delta_qm =   0.511886E-06 delta_en =   0.623047E-09 tol =   0.100000E-10
 Iteration #        119
 delta_qm =   0.560160E-06 delta_en =   0.681805E-09 tol =   0.100000E-10
 Iteration #        120
 delta_qm =   0.488048E-06 delta_en =   0.594033E-09 tol =   0.100000E-10
 Iteration #        121
 delta_qm =   0.369074E-06 delta_en =   0.449223E-09 tol =   0.100000E-10
 Iteration #        122
 delta_qm =   0.363914E-06 delta_en =   0.442942E-09 tol =   0.100000E-10
 Iteration #        123
 delta_qm =   0.437730E-06 delta_en =   0.532789E-09 tol =   0.100000E-10
 Iteration #        124
 delta_qm =   0.442642E-06 delta_en =   0.538766E-09 tol =   0.100000E-10
 Iteration #        125
 delta_qm =   0.358010E-06 delta_en =   0.435756E-09 tol =   0.100000E-10
 Iteration #        126
 delta_qm =   0.281900E-06 delta_en =   0.343118E-09 tol =   0.100000E-10
 Iteration #        127
 delta_qm =   0.316073E-06 delta_en =   0.384711E-09 tol =   0.100000E-10
 Iteration #        128
 delta_qm =   0.364912E-06 delta_en =   0.444157E-09 tol =   0.100000E-10
 Iteration #        129
 delta_qm =   0.339475E-06 delta_en =   0.413195E-09 tol =   0.100000E-10
 Iteration #        130
 delta_qm =   0.260231E-06 delta_en =   0.316744E-09 tol =   0.100000E-10
 Iteration #        131
 delta_qm =   0.228632E-06 delta_en =   0.278282E-09 tol =   0.100000E-10
 Iteration #        132
 delta_qm =   0.274089E-06 delta_en =   0.333610E-09 tol =   0.100000E-10
 Iteration #        133
 delta_qm =   0.295431E-06 delta_en =   0.359587E-09 tol =   0.100000E-10
 Iteration #        134
 delta_qm =   0.253339E-06 delta_en =   0.308355E-09 tol =   0.100000E-10
 Iteration #        135
 delta_qm =   0.192050E-06 delta_en =   0.233756E-09 tol =   0.100000E-10
 Iteration #        136
 delta_qm =   0.194921E-06 delta_en =   0.237251E-09 tol =   0.100000E-10
 Iteration #        137
 delta_qm =   0.233307E-06 delta_en =   0.283973E-09 tol =   0.100000E-10
 Iteration #        138
 delta_qm =   0.232032E-06 delta_en =   0.282421E-09 tol =   0.100000E-10
 Iteration #        139
 delta_qm =   0.185242E-06 delta_en =   0.225469E-09 tol =   0.100000E-10
 Iteration #        140
 delta_qm =   0.148351E-06 delta_en =   0.180567E-09 tol =   0.100000E-10
 Iteration #        141
 delta_qm =   0.169571E-06 delta_en =   0.206395E-09 tol =   0.100000E-10
 Iteration #        142
 delta_qm =   0.193391E-06 delta_en =   0.235388E-09 tol =   0.100000E-10
 Iteration #        143
 delta_qm =   0.176924E-06 delta_en =   0.215345E-09 tol =   0.100000E-10
 Iteration #        144
 delta_qm =   0.134747E-06 delta_en =   0.164009E-09 tol =   0.100000E-10
 Iteration #        145
 delta_qm =   0.121752E-06 delta_en =   0.148192E-09 tol =   0.100000E-10
 Iteration #        146
 delta_qm =   0.146646E-06 delta_en =   0.178492E-09 tol =   0.100000E-10
 Iteration #        147
 delta_qm =   0.155620E-06 delta_en =   0.189415E-09 tol =   0.100000E-10
 Iteration #        148
 delta_qm =   0.131393E-06 delta_en =   0.159927E-09 tol =   0.100000E-10
 Iteration #        149
 delta_qm =   0.100124E-06 delta_en =   0.121867E-09 tol =   0.100000E-10
 Iteration #        150
 delta_qm =   0.104488E-06 delta_en =   0.127178E-09 tol =   0.100000E-10
 Iteration #        151
 delta_qm =   0.124216E-06 delta_en =   0.151191E-09 tol =   0.100000E-10
 Iteration #        152
 delta_qm =   0.121485E-06 delta_en =   0.147866E-09 tol =   0.100000E-10
 Iteration #        153
 delta_qm =   0.958240E-07 delta_en =   0.116633E-09 tol =   0.100000E-10
 Iteration #        154
 delta_qm =   0.782712E-07 delta_en =   0.952687E-10 tol =   0.100000E-10
 Iteration #        155
 delta_qm =   0.909478E-07 delta_en =   0.110698E-09 tol =   0.100000E-10
 Iteration #        156
 delta_qm =   0.102367E-06 delta_en =   0.124597E-09 tol =   0.100000E-10
 Iteration #        157
 delta_qm =   0.921079E-07 delta_en =   0.112110E-09 tol =   0.100000E-10
 Iteration #        158
 delta_qm =   0.698301E-07 delta_en =   0.849945E-10 tol =   0.100000E-10
 Iteration #        159
 delta_qm =   0.649563E-07 delta_en =   0.790623E-10 tol =   0.100000E-10
 Iteration #        160
 delta_qm =   0.783925E-07 delta_en =   0.954163E-10 tol =   0.100000E-10
 Iteration #        161
 delta_qm =   0.818730E-07 delta_en =   0.996526E-10 tol =   0.100000E-10
 Iteration #        162
 delta_qm =   0.680946E-07 delta_en =   0.828821E-10 tol =   0.100000E-10
 Iteration #        163
 delta_qm =   0.523101E-07 delta_en =   0.636699E-10 tol =   0.100000E-10
 Iteration #        164
 delta_qm =   0.560409E-07 delta_en =   0.682108E-10 tol =   0.100000E-10
 Iteration #        165
 delta_qm =   0.660601E-07 delta_en =   0.804058E-10 tol =   0.100000E-10
 Iteration #        166
 delta_qm =   0.635300E-07 delta_en =   0.773262E-10 tol =   0.100000E-10
 Iteration #        167
 delta_qm =   0.495653E-07 delta_en =   0.603290E-10 tol =   0.100000E-10
 Iteration #        168
 delta_qm =   0.414012E-07 delta_en =   0.503919E-10 tol =   0.100000E-10
 Iteration #        169
 delta_qm =   0.487580E-07 delta_en =   0.593463E-10 tol =   0.100000E-10
 Iteration #        170
 delta_qm =   0.541199E-07 delta_en =   0.658727E-10 tol =   0.100000E-10
 Iteration #        171
 delta_qm =   0.479023E-07 delta_en =   0.583048E-10 tol =   0.100000E-10
 Iteration #        172
 delta_qm =   0.362283E-07 delta_en =   0.440957E-10 tol =   0.100000E-10
 Iteration #        173
 delta_qm =   0.347103E-07 delta_en =   0.422481E-10 tol =   0.100000E-10
 Iteration #        174
 delta_qm =   0.418670E-07 delta_en =   0.509589E-10 tol =   0.100000E-10
 Iteration #        175
 delta_qm =   0.430211E-07 delta_en =   0.523636E-10 tol =   0.100000E-10
 Iteration #        176
 delta_qm =   0.352667E-07 delta_en =   0.429252E-10 tol =   0.100000E-10
 Iteration #        177
 delta_qm =   0.273929E-07 delta_en =   0.333416E-10 tol =   0.100000E-10
 Iteration #        178
 delta_qm =   0.300661E-07 delta_en =   0.365952E-10 tol =   0.100000E-10
 Iteration #        179
 delta_qm =   0.350914E-07 delta_en =   0.427119E-10 tol =   0.100000E-10
 Iteration #        180
 delta_qm =   0.331840E-07 delta_en =   0.403902E-10 tol =   0.100000E-10
 Iteration #        181
 delta_qm =   0.256411E-07 delta_en =   0.312094E-10 tol =   0.100000E-10
 Iteration #        182
 delta_qm =   0.219523E-07 delta_en =   0.267195E-10 tol =   0.100000E-10
 Iteration #        183
 delta_qm =   0.261248E-07 delta_en =   0.317981E-10 tol =   0.100000E-10
 Iteration #        184
 delta_qm =   0.285773E-07 delta_en =   0.347832E-10 tol =   0.100000E-10
 Iteration #        185
 delta_qm =   0.248879E-07 delta_en =   0.302926E-10 tol =   0.100000E-10
 Iteration #        186
 delta_qm =   0.188214E-07 delta_en =   0.229087E-10 tol =   0.100000E-10
 Iteration #        187
 delta_qm =   0.185726E-07 delta_en =   0.226058E-10 tol =   0.100000E-10
 Iteration #        188
 delta_qm =   0.223376E-07 delta_en =   0.271884E-10 tol =   0.100000E-10
 Iteration #        189
 delta_qm =   0.225783E-07 delta_en =   0.274815E-10 tol =   0.100000E-10
 Iteration #        190
 delta_qm =   0.182550E-07 delta_en =   0.222192E-10 tol =   0.100000E-10
 Iteration #        191
 delta_qm =   0.143800E-07 delta_en =   0.175028E-10 tol =   0.100000E-10
 Iteration #        192
 delta_qm =   0.161319E-07 delta_en =   0.196351E-10 tol =   0.100000E-10
 Iteration #        193
 delta_qm =   0.186189E-07 delta_en =   0.226622E-10 tol =   0.100000E-10
 Iteration #        194
 delta_qm =   0.173133E-07 delta_en =   0.210731E-10 tol =   0.100000E-10
 Iteration #        195
 delta_qm =   0.132693E-07 delta_en =   0.161509E-10 tol =   0.100000E-10
 Iteration #        196
 delta_qm =   0.116665E-07 delta_en =   0.142000E-10 tol =   0.100000E-10
 Iteration #        197
 delta_qm =   0.139882E-07 delta_en =   0.170259E-10 tol =   0.100000E-10
 Iteration #        198
 delta_qm =   0.150713E-07 delta_en =   0.183442E-10 tol =   0.100000E-10
 Iteration #        199
 delta_qm =   0.129187E-07 delta_en =   0.157241E-10 tol =   0.100000E-10
 Iteration #        200
 delta_qm =   0.979431E-08 delta_en =   0.119213E-10 tol =   0.100000E-10

%%%% ELECTRONS %%%%%%%%%%%%%%%%%%%%%%%%%%%%%%%%%%%%%%%%%%%%%%%%%%%%%%%%%%%%%%%%%
 number of electrons        =         90
 total electronic charge    =     90.0000000
 number of spin components  =  1

%%%% BOUNDARY %%%%%%%%%%%%%%%%%%%%%%%%%%%%%%%%%%%%%%%%%%%%%%%%%%%%%%%%%%%%%%%%%%
 boundary mode              = electronic           
 boundary is built as a function of a smooth density
 function type              =  1 
 using the optimal SCCS function with parameters 
 rhomax                     =      0.0050000 
 rhomin                     =      0.0001000 

%%%% DIELECTRIC %%%%%%%%%%%%%%%%%%%%%%%%%%%%%%%%%%%%%%%%%%%%%%%%%%%%%%%%%%%%%%%%%
 dielectric build on homogeneous background
 environment bulk permitt.  =    100.0000000 
 dielectric flags
 need gradient              =  F 
 need factor depend. sqrt   =  F 
 need gradient of logarithm =  T 

%%%% COMPUTE ELECTROSTATIC POTENTIAL %%%%%%%%%%%%%%%%%%%%%%%%%%%%%%%%%%%%%%%%%%%
 Starting from polarization: rhoiter =      0.283899 jellium =      0.000000
 Iteration #          1
 delta_qm =   0.196916E-02 delta_en =   0.239678E-05 tol =   0.100000E-10
 Iteration #          2
 delta_qm =   0.945091E-03 delta_en =   0.115033E-05 tol =   0.100000E-10
 Iteration #          3
 delta_qm =   0.870848E-03 delta_en =   0.105996E-05 tol =   0.100000E-10
 Iteration #          4
 delta_qm =   0.608503E-03 delta_en =   0.740647E-06 tol =   0.100000E-10
 Iteration #          5
 delta_qm =   0.411430E-03 delta_en =   0.500776E-06 tol =   0.100000E-10
 Iteration #          6
 delta_qm =   0.382728E-03 delta_en =   0.465842E-06 tol =   0.100000E-10
 Iteration #          7
 delta_qm =   0.349491E-03 delta_en =   0.425387E-06 tol =   0.100000E-10
 Iteration #          8
 delta_qm =   0.266184E-03 delta_en =   0.323989E-06 tol =   0.100000E-10
 Iteration #          9
 delta_qm =   0.200166E-03 delta_en =   0.243635E-06 tol =   0.100000E-10
 Iteration #         10
 delta_qm =   0.195694E-03 delta_en =   0.238191E-06 tol =   0.100000E-10
 Iteration #         11
 delta_qm =   0.204611E-03 delta_en =   0.249044E-06 tol =   0.100000E-10
 Iteration #         12
 delta_qm =   0.185929E-03 delta_en =   0.226305E-06 tol =   0.100000E-10
 Iteration #         13
 delta_qm =   0.145084E-03 delta_en =   0.176590E-06 tol =   0.100000E-10
 Iteration #         14
 delta_qm =   0.120925E-03 delta_en =   0.147186E-06 tol =   0.100000E-10
 Iteration #         15
 delta_qm =   0.135318E-03 delta_en =   0.164704E-06 tol =   0.100000E-10
 Iteration #         16
 delta_qm =   0.148452E-03 delta_en =   0.180690E-06 tol =   0.100000E-10
 Iteration #         17
 delta_qm =   0.133971E-03 delta_en =   0.163065E-06 tol =   0.100000E-10
 Iteration #         18
 delta_qm =   0.103921E-03 delta_en =   0.126489E-06 tol =   0.100000E-10
 Iteration #         19
 delta_qm =   0.965728E-04 delta_en =   0.117545E-06 tol =   0.100000E-10
 Iteration #         20
 delta_qm =   0.114525E-03 delta_en =   0.139395E-06 tol =   0.100000E-10
 Iteration #         21
 delta_qm =   0.120147E-03 delta_en =   0.146238E-06 tol =   0.100000E-10
 Iteration #         22
 delta_qm =   0.101954E-03 delta_en =   0.124095E-06 tol =   0.100000E-10
 Iteration #         23
 delta_qm =   0.797388E-04 delta_en =   0.970550E-07 tol =   0.100000E-10
 Iteration #         24
 delta_qm =   0.832599E-04 delta_en =   0.101341E-06 tol =   0.100000E-10
 Iteration #         25
 delta_qm =   0.972634E-04 delta_en =   0.118385E-06 tol =   0.100000E-10
 Iteration #         26
 delta_qm =   0.948714E-04 delta_en =   0.115474E-06 tol =   0.100000E-10
 Iteration #         27
 delta_qm =   0.759711E-04 delta_en =   0.924690E-07 tol =   0.100000E-10
 Iteration #         28
 delta_qm =   0.631581E-04 delta_en =   0.768736E-07 tol =   0.100000E-10
 Iteration #         29
 delta_qm =   0.719735E-04 delta_en =   0.876033E-07 tol =   0.100000E-10
 Iteration #         30
 delta_qm =   0.802553E-04 delta_en =   0.976836E-07 tol =   0.100000E-10
 Iteration #         31
 delta_qm =   0.728355E-04 delta_en =   0.886525E-07 tol =   0.100000E-10
 Iteration #         32
 delta_qm =   0.564591E-04 delta_en =   0.687199E-07 tol =   0.100000E-10
 Iteration #         33
 delta_qm =   0.521919E-04 delta_en =   0.635259E-07 tol =   0.100000E-10
 Iteration #         34
 delta_qm =   0.616780E-04 delta_en =   0.750720E-07 tol =   0.100000E-10
 Iteration #         35
 delta_qm =   0.646198E-04 delta_en =   0.786528E-07 tol =   0.100000E-10
 Iteration #         36
 delta_qm =   0.548229E-04 delta_en =   0.667283E-07 tol =   0.100000E-10
 Iteration #         37
 delta_qm =   0.428183E-04 delta_en =   0.521168E-07 tol =   0.100000E-10
 Iteration #         38
 delta_qm =   0.445288E-04 delta_en =   0.541987E-07 tol =   0.100000E-10
 Iteration #         39
 delta_qm =   0.520027E-04 delta_en =   0.632956E-07 tol =   0.100000E-10
 Iteration #         40
 delta_qm =   0.508094E-04 delta_en =   0.618433E-07 tol =   0.100000E-10
 Iteration #         41
 delta_qm =   0.407459E-04 delta_en =   0.495943E-07 tol =   0.100000E-10
 Iteration #         42
 delta_qm =   0.337824E-04 delta_en =   0.411187E-07 tol =   0.100000E-10
 Iteration #         43
 delta_qm =   0.384165E-04 delta_en =   0.467591E-07 tol =   0.100000E-10
 Iteration #         44
 delta_qm =   0.429179E-04 delta_en =   0.522380E-07 tol =   0.100000E-10
 Iteration #         45
 delta_qm =   0.390444E-04 delta_en =   0.475233E-07 tol =   0.100000E-10
 Iteration #         46
 delta_qm =   0.302835E-04 delta_en =   0.368599E-07 tol =   0.100000E-10
 Iteration #         47
 delta_qm =   0.278859E-04 delta_en =   0.339416E-07 tol =   0.100000E-10
 Iteration #         48
 delta_qm =   0.329445E-04 delta_en =   0.400988E-07 tol =   0.100000E-10
 Iteration #         49
 delta_qm =   0.345942E-04 delta_en =   0.421067E-07 tol =   0.100000E-10
 Iteration #         50
 delta_qm =   0.294117E-04 delta_en =   0.357988E-07 tol =   0.100000E-10
 Iteration #         51
 delta_qm =   0.229474E-04 delta_en =   0.279307E-07 tol =   0.100000E-10
 Iteration #         52
 delta_qm =   0.237780E-04 delta_en =   0.289416E-07 tol =   0.100000E-10
 Iteration #         53
 delta_qm =   0.277969E-04 delta_en =   0.338333E-07 tol =   0.100000E-10
 Iteration #         54
 delta_qm =   0.272229E-04 delta_en =   0.331347E-07 tol =   0.100000E-10
 Iteration #         55
 delta_qm =   0.218652E-04 delta_en =   0.266134E-07 tol =   0.100000E-10
 Iteration #         56
 delta_qm =   0.180778E-04 delta_en =   0.220036E-07 tol =   0.100000E-10
 Iteration #         57
 delta_qm =   0.205129E-04 delta_en =   0.249675E-07 tol =   0.100000E-10
 Iteration #         58
 delta_qm =   0.229578E-04 delta_en =   0.279433E-07 tol =   0.100000E-10
 Iteration #         59
 delta_qm =   0.209342E-04 delta_en =   0.254803E-07 tol =   0.100000E-10
 Iteration #         60
 delta_qm =   0.162461E-04 delta_en =   0.197741E-07 tol =   0.100000E-10
 Iteration #         61
 delta_qm =   0.149019E-04 delta_en =   0.181380E-07 tol =   0.100000E-10
 Iteration #         62
 delta_qm =   0.175979E-04 delta_en =   0.214195E-07 tol =   0.100000E-10
 Iteration #         63
 delta_qm =   0.185198E-04 delta_en =   0.225416E-07 tol =   0.100000E-10
 Iteration #         64
 delta_qm =   0.157785E-04 delta_en =   0.192050E-07 tol =   0.100000E-10
 Iteration #         65
 delta_qm =   0.122985E-04 delta_en =   0.149693E-07 tol =   0.100000E-10
 Iteration #         66
 delta_qm =   0.126972E-04 delta_en =   0.154546E-07 tol =   0.100000E-10
 Iteration #         67
 delta_qm =   0.148576E-04 delta_en =   0.180841E-07 tol =   0.100000E-10
 Iteration #         68
 delta_qm =   0.145850E-04 delta_en =   0.177523E-07 tol =   0.100000E-10
 Iteration #         69
 delta_qm =   0.117332E-04 delta_en =   0.142812E-07 tol =   0.100000E-10
 Iteration #         70
 delta_qm =   0.967429E-05 delta_en =   0.117752E-07 tol =   0.100000E-10
 Iteration #         71
 delta_qm =   0.109529E-04 delta_en =   0.133315E-07 tol =   0.100000E-10
 Iteration #         72
 delta_qm =   0.122803E-04 delta_en =   0.149471E-07 tol =   0.100000E-10
 Iteration #         73
 delta_qm =   0.112239E-04 delta_en =   0.136613E-07 tol =   0.100000E-10
 Iteration #         74
 delta_qm =   0.871567E-05 delta_en =   0.106084E-07 tol =   0.100000E-10
 Iteration #         75
 delta_qm =   0.796368E-05 delta_en =   0.969308E-08 tol =   0.100000E-10
 Iteration #         76
 delta_qm =   0.940007E-05 delta_en =   0.114414E-07 tol =   0.100000E-10
 Iteration #         77
 delta_qm =   0.991421E-05 delta_en =   0.120672E-07 tol =   0.100000E-10
 Iteration #         78
 delta_qm =   0.846457E-05 delta_en =   0.103027E-07 tol =   0.100000E-10
 Iteration #         79
 delta_qm =   0.659156E-05 delta_en =   0.802300E-08 tol =   0.100000E-10
 Iteration #         80
 delta_qm =   0.678031E-05 delta_en =   0.825272E-08 tol =   0.100000E-10
 Iteration #         81
 delta_qm =   0.794134E-05 delta_en =   0.966589E-08 tol =   0.100000E-10
 Iteration #         82
 delta_qm =   0.781392E-05 delta_en =   0.951080E-08 tol =   0.100000E-10
 Iteration #         83
 delta_qm =   0.629620E-05 delta_en =   0.766349E-08 tol =   0.100000E-10
 Iteration #         84
 delta_qm =   0.517743E-05 delta_en =   0.630176E-08 tol =   0.100000E-10
 Iteration #         85
 delta_qm =   0.584833E-05 delta_en =   0.711835E-08 tol =   0.100000E-10
 Iteration #         86
 delta_qm =   0.656866E-05 delta_en =   0.799512E-08 tol =   0.100000E-10
 Iteration #         87
 delta_qm =   0.601757E-05 delta_en =   0.732435E-08 tol =   0.100000E-10
 Iteration #         88
 delta_qm =   0.467585E-05 delta_en =   0.569127E-08 tol =   0.100000E-10
 Iteration #         89
 delta_qm =   0.425600E-05 delta_en =   0.518024E-08 tol =   0.100000E-10
 Iteration #         90
 delta_qm =   0.502104E-05 delta_en =   0.611141E-08 tol =   0.100000E-10
 Iteration #         91
 delta_qm =   0.530724E-05 delta_en =   0.645976E-08 tol =   0.100000E-10
 Iteration #         92
 delta_qm =   0.454085E-05 delta_en =   0.552695E-08 tol =   0.100000E-10
 Iteration #         93
 delta_qm =   0.353300E-05 delta_en =   0.430023E-08 tol =   0.100000E-10
 Iteration #         94
 delta_qm =   0.362072E-05 delta_en =   0.440700E-08 tol =   0.100000E-10
 Iteration #         95
 delta_qm =   0.424451E-05 delta_en =   0.516625E-08 tol =   0.100000E-10
 Iteration #         96
 delta_qm =   0.418620E-05 delta_en =   0.509528E-08 tol =   0.100000E-10
 Iteration #         97
 delta_qm =   0.337863E-05 delta_en =   0.411233E-08 tol =   0.100000E-10
 Iteration #         98
 delta_qm =   0.277097E-05 delta_en =   0.337271E-08 tol =   0.100000E-10
 Iteration #         99
 delta_qm =   0.312269E-05 delta_en =   0.380082E-08 tol =   0.100000E-10
 Iteration #        100
 delta_qm =   0.351345E-05 delta_en =   0.427643E-08 tol =   0.100000E-10
 Iteration #        101
 delta_qm =   0.322618E-05 delta_en =   0.392678E-08 tol =   0.100000E-10
 Iteration #        102
 delta_qm =   0.250858E-05 delta_en =   0.305335E-08 tol =   0.100000E-10
 Iteration #        103
 delta_qm =   0.227461E-05 delta_en =   0.276857E-08 tol =   0.100000E-10
 Iteration #        104
 delta_qm =   0.268193E-05 delta_en =   0.326435E-08 tol =   0.100000E-10
 Iteration #        105
 delta_qm =   0.284098E-05 delta_en =   0.345792E-08 tol =   0.100000E-10
 Iteration #        106
 delta_qm =   0.243592E-05 delta_en =   0.296491E-08 tol =   0.100000E-10
 Iteration #        107
 delta_qm =   0.189372E-05 delta_en =   0.230496E-08 tol =   0.100000E-10
 Iteration #        108
 delta_qm =   0.193352E-05 delta_en =   0.235340E-08 tol =   0.100000E-10
 Iteration #        109
 delta_qm =   0.226857E-05 delta_en =   0.276121E-08 tol =   0.100000E-10
 Iteration #        110
 delta_qm =   0.224264E-05 delta_en =   0.272966E-08 tol =   0.100000E-10
 Iteration #        111
 delta_qm =   0.181301E-05 delta_en =   0.220673E-08 tol =   0.100000E-10
 Iteration #        112
 delta_qm =   0.148310E-05 delta_en =   0.180517E-08 tol =   0.100000E-10
 Iteration #        113
 delta_qm =   0.166734E-05 delta_en =   0.202943E-08 tol =   0.100000E-10
 Iteration #        114
 delta_qm =   0.187923E-05 delta_en =   0.228732E-08 tol =   0.100000E-10
 Iteration #        115
 delta_qm =   0.172961E-05 delta_en =   0.210521E-08 tol =   0.100000E-10
 Iteration #        116
 delta_qm =   0.134587E-05 delta_en =   0.163815E-08 tol =   0.100000E-10
 Iteration #        117
 delta_qm =   0.121571E-05 delta_en =   0.147971E-08 tol =   0.100000E-10
 Iteration #        118
 delta_qm =   0.143250E-05 delta_en =   0.174359E-08 tol =   0.100000E-10
 Iteration #        119
 delta_qm =   0.152074E-05 delta_en =   0.185099E-08 tol =   0.100000E-10
 Iteration #        120
 delta_qm =   0.130672E-05 delta_en =   0.159049E-08 tol =   0.100000E-10
 Iteration #        121
 delta_qm =   0.101509E-05 delta_en =   0.123553E-08 tol =   0.100000E-10
 Iteration #        122
 delta_qm =   0.103254E-05 delta_en =   0.125677E-08 tol =   0.100000E-10
 Iteration #        123
 delta_qm =   0.121245E-05 delta_en =   0.147575E-08 tol =   0.100000E-10
 Iteration #        124
 delta_qm =   0.120140E-05 delta_en =   0.146230E-08 tol =   0.100000E-10
 Iteration #        125
 delta_qm =   0.972880E-06 delta_en =   0.118415E-08 tol =   0.100000E-10
 Iteration #        126
 delta_qm =   0.793838E-06 delta_en =   0.966229E-09 tol =   0.100000E-10
 Iteration #        127
 delta_qm =   0.890265E-06 delta_en =   0.108360E-08 tol =   0.100000E-10
 Iteration #        128
 delta_qm =   0.100511E-05 delta_en =   0.122338E-08 tol =   0.100000E-10
 Iteration #        129
 delta_qm =   0.927247E-06 delta_en =   0.112861E-08 tol =   0.100000E-10
 Iteration #        130
 delta_qm =   0.722083E-06 delta_en =   0.878891E-09 tol =   0.100000E-10
 Iteration #        131
 delta_qm =   0.649781E-06 delta_en =   0.790889E-09 tol =   0.100000E-10
 Iteration #        132
 delta_qm =   0.765131E-06 delta_en =   0.931287E-09 tol =   0.100000E-10
 Iteration #        133
 delta_qm =   0.814013E-06 delta_en =   0.990785E-09 tol =   0.100000E-10
 Iteration #        134
 delta_qm =   0.700960E-06 delta_en =   0.853182E-09 tol =   0.100000E-10
 Iteration #        135
 delta_qm =   0.544144E-06 delta_en =   0.662311E-09 tol =   0.100000E-10
 Iteration #        136
 delta_qm =   0.551407E-06 delta_en =   0.671152E-09 tol =   0.100000E-10
 Iteration #        137
 delta_qm =   0.647991E-06 delta_en =   0.788710E-09 tol =   0.100000E-10
 Iteration #        138
 delta_qm =   0.643586E-06 delta_en =   0.783348E-09 tol =   0.100000E-10
 Iteration #        139
 delta_qm =   0.522055E-06 delta_en =   0.635425E-09 tol =   0.100000E-10
 Iteration #        140
 delta_qm =   0.424929E-06 delta_en =   0.517207E-09 tol =   0.100000E-10
 Iteration #        141
 delta_qm =   0.475347E-06 delta_en =   0.578574E-09 tol =   0.100000E-10
 Iteration #        142
 delta_qm =   0.537574E-06 delta_en =   0.654314E-09 tol =   0.100000E-10
 Iteration #        143
 delta_qm =   0.497089E-06 delta_en =   0.605037E-09 tol =   0.100000E-10
 Iteration #        144
 delta_qm =   0.387416E-06 delta_en =   0.471547E-09 tol =   0.100000E-10
 Iteration #        145
 delta_qm =   0.347315E-06 delta_en =   0.422738E-09 tol =   0.100000E-10
 Iteration #        146
 delta_qm =   0.408666E-06 delta_en =   0.497413E-09 tol =   0.100000E-10
 Iteration #        147
 delta_qm =   0.435709E-06 delta_en =   0.530328E-09 tol =   0.100000E-10
 Iteration #        148
 delta_qm =   0.376009E-06 delta_en =   0.457663E-09 tol =   0.100000E-10
 Iteration #        149
 delta_qm =   0.291702E-06 delta_en =   0.355048E-09 tol =   0.100000E-10
 Iteration #        150
 delta_qm =   0.294473E-06 delta_en =   0.358421E-09 tol =   0.100000E-10
 Iteration #        151
 delta_qm =   0.346309E-06 delta_en =   0.421513E-09 tol =   0.100000E-10
 Iteration #        152
 delta_qm =   0.344757E-06 delta_en =   0.419625E-09 tol =   0.100000E-10
 Iteration #        153
 delta_qm =   0.280137E-06 delta_en =   0.340972E-09 tol =   0.100000E-10
 Iteration #        154
 delta_qm =   0.227469E-06 delta_en =   0.276866E-09 tol =   0.100000E-10
 Iteration #        155
 delta_qm =   0.253806E-06 delta_en =   0.308922E-09 tol =   0.100000E-10
 Iteration #        156
 delta_qm =   0.287508E-06 delta_en =   0.349944E-09 tol =   0.100000E-10
 Iteration #        157
 delta_qm =   0.266479E-06 delta_en =   0.324348E-09 tol =   0.100000E-10
 Iteration #        158
 delta_qm =   0.207861E-06 delta_en =   0.253001E-09 tol =   0.100000E-10
 Iteration #        159
 delta_qm =   0.185651E-06 delta_en =   0.225967E-09 tol =   0.100000E-10
 Iteration #        160
 delta_qm =   0.218270E-06 delta_en =   0.265670E-09 tol =   0.100000E-10
 Iteration #        161
 delta_qm =   0.233212E-06 delta_en =   0.283856E-09 tol =   0.100000E-10
 Iteration #        162
 delta_qm =   0.201695E-06 delta_en =   0.245495E-09 tol =   0.100000E-10
 Iteration #        163
 delta_qm =   0.156380E-06 delta_en =   0.190340E-09 tol =   0.100000E-10
 Iteration #        164
 delta_qm =   0.157263E-06 delta_en =   0.191414E-09 tol =   0.100000E-10
 Iteration #        165
 delta_qm =   0.185075E-06 delta_en =   0.225266E-09 tol =   0.100000E-10
 Iteration #        166
 delta_qm =   0.184676E-06 delta_en =   0.224780E-09 tol =   0.100000E-10
 Iteration #        167
 delta_qm =   0.150322E-06 delta_en =   0.182967E-09 tol =   0.100000E-10
 Iteration #        168
 delta_qm =   0.121773E-06 delta_en =   0.148217E-09 tol =   0.100000E-10
 Iteration #        169
 delta_qm =   0.135516E-06 delta_en =   0.164945E-09 tol =   0.100000E-10
 Iteration #        170
 delta_qm =   0.153763E-06 delta_en =   0.187155E-09 tol =   0.100000E-10
 Iteration #        171
 delta_qm =   0.142850E-06 delta_en =   0.173872E-09 tol =   0.100000E-10
 Iteration #        172
 delta_qm =   0.111526E-06 delta_en =   0.135745E-09 tol =   0.100000E-10
 Iteration #        173
 delta_qm =   0.992404E-07 delta_en =   0.120792E-09 tol =   0.100000E-10
 Iteration #        174
 delta_qm =   0.116577E-06 delta_en =   0.141893E-09 tol =   0.100000E-10
 Iteration #        175
 delta_qm =   0.124822E-06 delta_en =   0.151929E-09 tol =   0.100000E-10
 Iteration #        176
 delta_qm =   0.108189E-06 delta_en =   0.131684E-09 tol =   0.100000E-10
 Iteration #        177
 delta_qm =   0.838377E-07 delta_en =   0.102044E-09 tol =   0.100000E-10
 Iteration #        178
 delta_qm =   0.839876E-07 delta_en =   0.102226E-09 tol =   0.100000E-10
 Iteration #        179
 delta_qm =   0.989060E-07 delta_en =   0.120385E-09 tol =   0.100000E-10
 Iteration #        180
 delta_qm =   0.989223E-07 delta_en =   0.120404E-09 tol =   0.100000E-10
 Iteration #        181
 delta_qm =   0.806630E-07 delta_en =   0.981798E-10 tol =   0.100000E-10
 Iteration #        182
 delta_qm =   0.651930E-07 delta_en =   0.793504E-10 tol =   0.100000E-10
 Iteration #        183
 delta_qm =   0.723566E-07 delta_en =   0.880697E-10 tol =   0.100000E-10
 Iteration #        184
 delta_qm =   0.822324E-07 delta_en =   0.100090E-09 tol =   0.100000E-10
 Iteration #        185
 delta_qm =   0.765755E-07 delta_en =   0.932048E-10 tol =   0.100000E-10
 Iteration #        186
 delta_qm =   0.598391E-07 delta_en =   0.728339E-10 tol =   0.100000E-10
 Iteration #        187
 delta_qm =   0.530516E-07 delta_en =   0.645723E-10 tol =   0.100000E-10
 Iteration #        188
 delta_qm =   0.622625E-07 delta_en =   0.757835E-10 tol =   0.100000E-10
 Iteration #        189
 delta_qm =   0.668073E-07 delta_en =   0.813152E-10 tol =   0.100000E-10
 Iteration #        190
 delta_qm =   0.580319E-07 delta_en =   0.706342E-10 tol =   0.100000E-10
 Iteration #        191
 delta_qm =   0.449484E-07 delta_en =   0.547094E-10 tol =   0.100000E-10
 Iteration #        192
 delta_qm =   0.448551E-07 delta_en =   0.545959E-10 tol =   0.100000E-10
 Iteration #        193
 delta_qm =   0.528552E-07 delta_en =   0.643333E-10 tol =   0.100000E-10
 Iteration #        194
 delta_qm =   0.529869E-07 delta_en =   0.644935E-10 tol =   0.100000E-10
 Iteration #        195
 delta_qm =   0.432834E-07 delta_en =   0.526829E-10 tol =   0.100000E-10
 Iteration #        196
 delta_qm =   0.349039E-07 delta_en =   0.424836E-10 tol =   0.100000E-10
 Iteration #        197
 delta_qm =   0.386336E-07 delta_en =   0.470234E-10 tol =   0.100000E-10
 Iteration #        198
 delta_qm =   0.439767E-07 delta_en =   0.535268E-10 tol =   0.100000E-10
 Iteration #        199
 delta_qm =   0.410477E-07 delta_en =   0.499616E-10 tol =   0.100000E-10
 Iteration #        200
 delta_qm =   0.321070E-07 delta_en =   0.390794E-10 tol =   0.100000E-10

%%%% ELECTRONS %%%%%%%%%%%%%%%%%%%%%%%%%%%%%%%%%%%%%%%%%%%%%%%%%%%%%%%%%%%%%%%%%
 number of electrons        =         90
 total electronic charge    =     90.0000000
 number of spin components  =  1

%%%% BOUNDARY %%%%%%%%%%%%%%%%%%%%%%%%%%%%%%%%%%%%%%%%%%%%%%%%%%%%%%%%%%%%%%%%%%
 boundary mode              = electronic           
 boundary is built as a function of a smooth density
 function type              =  1 
 using the optimal SCCS function with parameters 
 rhomax                     =      0.0050000 
 rhomin                     =      0.0001000 

%%%% DIELECTRIC %%%%%%%%%%%%%%%%%%%%%%%%%%%%%%%%%%%%%%%%%%%%%%%%%%%%%%%%%%%%%%%%%
 dielectric build on homogeneous background
 environment bulk permitt.  =    100.0000000 
 dielectric flags
 need gradient              =  F 
 need factor depend. sqrt   =  F 
 need gradient of logarithm =  T 

%%%% COMPUTE ELECTROSTATIC POTENTIAL %%%%%%%%%%%%%%%%%%%%%%%%%%%%%%%%%%%%%%%%%%%
 Starting from polarization: rhoiter =      0.280087 jellium =      0.000000
 Iteration #          1
 delta_qm =   0.513415E-03 delta_en =   0.624909E-06 tol =   0.100000E-10
 Iteration #          2
 delta_qm =   0.246029E-03 delta_en =   0.299457E-06 tol =   0.100000E-10
 Iteration #          3
 delta_qm =   0.223660E-03 delta_en =   0.272230E-06 tol =   0.100000E-10
 Iteration #          4
 delta_qm =   0.166809E-03 delta_en =   0.203034E-06 tol =   0.100000E-10
 Iteration #          5
 delta_qm =   0.113613E-03 delta_en =   0.138285E-06 tol =   0.100000E-10
 Iteration #          6
 delta_qm =   0.878206E-04 delta_en =   0.106892E-06 tol =   0.100000E-10
 Iteration #          7
 delta_qm =   0.716219E-04 delta_en =   0.871755E-07 tol =   0.100000E-10
 Iteration #          8
 delta_qm =   0.634193E-04 delta_en =   0.771916E-07 tol =   0.100000E-10
 Iteration #          9
 delta_qm =   0.554595E-04 delta_en =   0.675031E-07 tol =   0.100000E-10
 Iteration #         10
 delta_qm =   0.428016E-04 delta_en =   0.520964E-07 tol =   0.100000E-10
 Iteration #         11
 delta_qm =   0.340252E-04 delta_en =   0.414142E-07 tol =   0.100000E-10
 Iteration #         12
 delta_qm =   0.377019E-04 delta_en =   0.458893E-07 tol =   0.100000E-10
 Iteration #         13
 delta_qm =   0.428749E-04 delta_en =   0.521857E-07 tol =   0.100000E-10
 Iteration #         14
 delta_qm =   0.398946E-04 delta_en =   0.485582E-07 tol =   0.100000E-10
 Iteration #         15
 delta_qm =   0.308633E-04 delta_en =   0.375656E-07 tol =   0.100000E-10
 Iteration #         16
 delta_qm =   0.274189E-04 delta_en =   0.333733E-07 tol =   0.100000E-10
 Iteration #         17
 delta_qm =   0.331071E-04 delta_en =   0.402967E-07 tol =   0.100000E-10
 Iteration #         18
 delta_qm =   0.360410E-04 delta_en =   0.438677E-07 tol =   0.100000E-10
 Iteration #         19
 delta_qm =   0.313100E-04 delta_en =   0.381093E-07 tol =   0.100000E-10
 Iteration #         20
 delta_qm =   0.238708E-04 delta_en =   0.290546E-07 tol =   0.100000E-10
 Iteration #         21
 delta_qm =   0.238610E-04 delta_en =   0.290427E-07 tol =   0.100000E-10
 Iteration #         22
 delta_qm =   0.287215E-04 delta_en =   0.349587E-07 tol =   0.100000E-10
 Iteration #         23
 delta_qm =   0.291327E-04 delta_en =   0.354592E-07 tol =   0.100000E-10
 Iteration #         24
 delta_qm =   0.237613E-04 delta_en =   0.289214E-07 tol =   0.100000E-10
 Iteration #         25
 delta_qm =   0.187289E-04 delta_en =   0.227961E-07 tol =   0.100000E-10
 Iteration #         26
 delta_qm =   0.207890E-04 delta_en =   0.253036E-07 tol =   0.100000E-10
 Iteration #         27
 delta_qm =   0.242078E-04 delta_en =   0.294648E-07 tol =   0.100000E-10
 Iteration #         28
 delta_qm =   0.229509E-04 delta_en =   0.279349E-07 tol =   0.100000E-10
 Iteration #         29
 delta_qm =   0.178752E-04 delta_en =   0.217570E-07 tol =   0.100000E-10
 Iteration #         30
 delta_qm =   0.152679E-04 delta_en =   0.185835E-07 tol =   0.100000E-10
 Iteration #         31
 delta_qm =   0.180961E-04 delta_en =   0.220258E-07 tol =   0.100000E-10
 Iteration #         32
 delta_qm =   0.200212E-04 delta_en =   0.243690E-07 tol =   0.100000E-10
 Iteration #         33
 delta_qm =   0.177669E-04 delta_en =   0.216252E-07 tol =   0.100000E-10
 Iteration #         34
 delta_qm =   0.135351E-04 delta_en =   0.164743E-07 tol =   0.100000E-10
 Iteration #         35
 delta_qm =   0.129332E-04 delta_en =   0.157418E-07 tol =   0.100000E-10
 Iteration #         36
 delta_qm =   0.156138E-04 delta_en =   0.190046E-07 tol =   0.100000E-10
 Iteration #         37
 delta_qm =   0.162397E-04 delta_en =   0.197664E-07 tol =   0.100000E-10
 Iteration #         38
 delta_qm =   0.135413E-04 delta_en =   0.164820E-07 tol =   0.100000E-10
 Iteration #         39
 delta_qm =   0.104787E-04 delta_en =   0.127543E-07 tol =   0.100000E-10
 Iteration #         40
 delta_qm =   0.112133E-04 delta_en =   0.136484E-07 tol =   0.100000E-10
 Iteration #         41
 delta_qm =   0.132640E-04 delta_en =   0.161445E-07 tol =   0.100000E-10
 Iteration #         42
 delta_qm =   0.129102E-04 delta_en =   0.157138E-07 tol =   0.100000E-10
 Iteration #         43
 delta_qm =   0.102154E-04 delta_en =   0.124337E-07 tol =   0.100000E-10
 Iteration #         44
 delta_qm =   0.841659E-05 delta_en =   0.102443E-07 tol =   0.100000E-10
 Iteration #         45
 delta_qm =   0.978275E-05 delta_en =   0.119072E-07 tol =   0.100000E-10
 Iteration #         46
 delta_qm =   0.110599E-04 delta_en =   0.134617E-07 tol =   0.100000E-10
 Iteration #         47
 delta_qm =   0.100668E-04 delta_en =   0.122529E-07 tol =   0.100000E-10
 Iteration #         48
 delta_qm =   0.770619E-05 delta_en =   0.937968E-08 tol =   0.100000E-10
 Iteration #         49
 delta_qm =   0.703734E-05 delta_en =   0.856558E-08 tol =   0.100000E-10
 Iteration #         50
 delta_qm =   0.848082E-05 delta_en =   0.103225E-07 tol =   0.100000E-10
 Iteration #         51
 delta_qm =   0.904070E-05 delta_en =   0.110040E-07 tol =   0.100000E-10
 Iteration #         52
 delta_qm =   0.771554E-05 delta_en =   0.939106E-08 tol =   0.100000E-10
 Iteration #         53
 delta_qm =   0.590314E-05 delta_en =   0.718507E-08 tol =   0.100000E-10
 Iteration #         54
 delta_qm =   0.605974E-05 delta_en =   0.737568E-08 tol =   0.100000E-10
 Iteration #         55
 delta_qm =   0.725125E-05 delta_en =   0.882594E-08 tol =   0.100000E-10
 Iteration #         56
 delta_qm =   0.724255E-05 delta_en =   0.881535E-08 tol =   0.100000E-10
 Iteration #         57
 delta_qm =   0.583798E-05 delta_en =   0.710576E-08 tol =   0.100000E-10
 Iteration #         58
 delta_qm =   0.466885E-05 delta_en =   0.568275E-08 tol =   0.100000E-10
 Iteration #         59
 delta_qm =   0.528329E-05 delta_en =   0.643062E-08 tol =   0.100000E-10
 Iteration #         60
 delta_qm =   0.609113E-05 delta_en =   0.741388E-08 tol =   0.100000E-10
 Iteration #         61
 delta_qm =   0.568873E-05 delta_en =   0.692410E-08 tol =   0.100000E-10
 Iteration #         62
 delta_qm =   0.439718E-05 delta_en =   0.535208E-08 tol =   0.100000E-10
 Iteration #         63
 delta_qm =   0.384602E-05 delta_en =   0.468122E-08 tol =   0.100000E-10
 Iteration #         64
 delta_qm =   0.459661E-05 delta_en =   0.559481E-08 tol =   0.100000E-10
 Iteration #         65
 delta_qm =   0.501776E-05 delta_en =   0.610743E-08 tol =   0.100000E-10
 Iteration #         66
 delta_qm =   0.438754E-05 delta_en =   0.534034E-08 tol =   0.100000E-10
 Iteration #         67
 delta_qm =   0.334162E-05 delta_en =   0.406729E-08 tol =   0.100000E-10
 Iteration #         68
 delta_qm =   0.328065E-05 delta_en =   0.399308E-08 tol =   0.100000E-10
 Iteration #         69
 delta_qm =   0.395364E-05 delta_en =   0.481222E-08 tol =   0.100000E-10
 Iteration #         70
 delta_qm =   0.405111E-05 delta_en =   0.493086E-08 tol =   0.100000E-10
 Iteration #         71
 delta_qm =   0.333390E-05 delta_en =   0.405789E-08 tol =   0.100000E-10
 Iteration #         72
 delta_qm =   0.260610E-05 delta_en =   0.317204E-08 tol =   0.100000E-10
 Iteration #         73
 delta_qm =   0.285224E-05 delta_en =   0.347164E-08 tol =   0.100000E-10
 Iteration #         74
 delta_qm =   0.334487E-05 delta_en =   0.407124E-08 tol =   0.100000E-10
 Iteration #         75
 delta_qm =   0.320594E-05 delta_en =   0.390214E-08 tol =   0.100000E-10
 Iteration #         76
 delta_qm =   0.251226E-05 delta_en =   0.305783E-08 tol =   0.100000E-10
 Iteration #         77
 delta_qm =   0.211309E-05 delta_en =   0.257197E-08 tol =   0.100000E-10
 Iteration #         78
 delta_qm =   0.248701E-05 delta_en =   0.302710E-08 tol =   0.100000E-10
 Iteration #         79
 delta_qm =   0.277660E-05 delta_en =   0.337957E-08 tol =   0.100000E-10
 Iteration #         80
 delta_qm =   0.248942E-05 delta_en =   0.303002E-08 tol =   0.100000E-10
 Iteration #         81
 delta_qm =   0.189898E-05 delta_en =   0.231137E-08 tol =   0.100000E-10
 Iteration #         82
 delta_qm =   0.178113E-05 delta_en =   0.216792E-08 tol =   0.100000E-10
 Iteration #         83
 delta_qm =   0.215031E-05 delta_en =   0.261728E-08 tol =   0.100000E-10
 Iteration #         84
 delta_qm =   0.225924E-05 delta_en =   0.274985E-08 tol =   0.100000E-10
 Iteration #         85
 delta_qm =   0.190144E-05 delta_en =   0.231435E-08 tol =   0.100000E-10
 Iteration #         86
 delta_qm =   0.146336E-05 delta_en =   0.178114E-08 tol =   0.100000E-10
 Iteration #         87
 delta_qm =   0.154039E-05 delta_en =   0.187491E-08 tol =   0.100000E-10
 Iteration #         88
 delta_qm =   0.183158E-05 delta_en =   0.222933E-08 tol =   0.100000E-10
 Iteration #         89
 delta_qm =   0.180162E-05 delta_en =   0.219286E-08 tol =   0.100000E-10
 Iteration #         90
 delta_qm =   0.143592E-05 delta_en =   0.174775E-08 tol =   0.100000E-10
 Iteration #         91
 delta_qm =   0.116787E-05 delta_en =   0.142149E-08 tol =   0.100000E-10
 Iteration #         92
 delta_qm =   0.134385E-05 delta_en =   0.163568E-08 tol =   0.100000E-10
 Iteration #         93
 delta_qm =   0.153187E-05 delta_en =   0.186453E-08 tol =   0.100000E-10
 Iteration #         94
 delta_qm =   0.140896E-05 delta_en =   0.171493E-08 tol =   0.100000E-10
 Iteration #         95
 delta_qm =   0.108225E-05 delta_en =   0.131728E-08 tol =   0.100000E-10
 Iteration #         96
 delta_qm =   0.970746E-06 delta_en =   0.118155E-08 tol =   0.100000E-10
 Iteration #         97
 delta_qm =   0.116688E-05 delta_en =   0.142028E-08 tol =   0.100000E-10
 Iteration #         98
 delta_qm =   0.125616E-05 delta_en =   0.152895E-08 tol =   0.100000E-10
 Iteration #         99
 delta_qm =   0.108257E-05 delta_en =   0.131766E-08 tol =   0.100000E-10
 Iteration #        100
 delta_qm =   0.826084E-06 delta_en =   0.100548E-08 tol =   0.100000E-10
 Iteration #        101
 delta_qm =   0.832950E-06 delta_en =   0.101383E-08 tol =   0.100000E-10
 Iteration #        102
 delta_qm =   0.100020E-05 delta_en =   0.121740E-08 tol =   0.100000E-10
 Iteration #        103
 delta_qm =   0.100950E-05 delta_en =   0.122872E-08 tol =   0.100000E-10
 Iteration #        104
 delta_qm =   0.820433E-06 delta_en =   0.998600E-09 tol =   0.100000E-10
 Iteration #        105
 delta_qm =   0.649499E-06 delta_en =   0.790545E-09 tol =   0.100000E-10
 Iteration #        106
 delta_qm =   0.725593E-06 delta_en =   0.883163E-09 tol =   0.100000E-10
 Iteration #        107
 delta_qm =   0.842652E-06 delta_en =   0.102564E-08 tol =   0.100000E-10
 Iteration #        108
 delta_qm =   0.795329E-06 delta_en =   0.968043E-09 tol =   0.100000E-10
 Iteration #        109
 delta_qm =   0.617930E-06 delta_en =   0.752120E-09 tol =   0.100000E-10
 Iteration #        110
 delta_qm =   0.531626E-06 delta_en =   0.647075E-09 tol =   0.100000E-10
 Iteration #        111
 delta_qm =   0.631969E-06 delta_en =   0.769208E-09 tol =   0.100000E-10
 Iteration #        112
 delta_qm =   0.696338E-06 delta_en =   0.847555E-09 tol =   0.100000E-10
 Iteration #        113
 delta_qm =   0.615073E-06 delta_en =   0.748643E-09 tol =   0.100000E-10
 Iteration #        114
 delta_qm =   0.468424E-06 delta_en =   0.570147E-09 tol =   0.100000E-10
 Iteration #        115
 delta_qm =   0.451410E-06 delta_en =   0.549439E-09 tol =   0.100000E-10
 Iteration #        116
 delta_qm =   0.544780E-06 delta_en =   0.663085E-09 tol =   0.100000E-10
 Iteration #        117
 delta_qm =   0.563978E-06 delta_en =   0.686452E-09 tol =   0.100000E-10
 Iteration #        118
 delta_qm =   0.468307E-06 delta_en =   0.570006E-09 tol =   0.100000E-10
 Iteration #        119
 delta_qm =   0.363440E-06 delta_en =   0.442365E-09 tol =   0.100000E-10
 Iteration #        120
 delta_qm =   0.391741E-06 delta_en =   0.476812E-09 tol =   0.100000E-10
 Iteration #        121
 delta_qm =   0.462192E-06 delta_en =   0.562563E-09 tol =   0.100000E-10
 Iteration #        122
 delta_qm =   0.447702E-06 delta_en =   0.544926E-09 tol =   0.100000E-10
 Iteration #        123
 delta_qm =   0.353138E-06 delta_en =   0.429825E-09 tol =   0.100000E-10
 Iteration #        124
 delta_qm =   0.292776E-06 delta_en =   0.356355E-09 tol =   0.100000E-10
 Iteration #        125
 delta_qm =   0.341727E-06 delta_en =   0.415937E-09 tol =   0.100000E-10
 Iteration #        126
 delta_qm =   0.384852E-06 delta_en =   0.468427E-09 tol =   0.100000E-10
 Iteration #        127
 delta_qm =   0.348638E-06 delta_en =   0.424349E-09 tol =   0.100000E-10
 Iteration #        128
 delta_qm =   0.266541E-06 delta_en =   0.324423E-09 tol =   0.100000E-10
 Iteration #        129
 delta_qm =   0.245435E-06 delta_en =   0.298733E-09 tol =   0.100000E-10
 Iteration #        130
 delta_qm =   0.296014E-06 delta_en =   0.360297E-09 tol =   0.100000E-10
 Iteration #        131
 delta_qm =   0.314137E-06 delta_en =   0.382355E-09 tol =   0.100000E-10
 Iteration #        132
 delta_qm =   0.266915E-06 delta_en =   0.324879E-09 tol =   0.100000E-10
 Iteration #        133
 delta_qm =   0.204538E-06 delta_en =   0.248956E-09 tol =   0.100000E-10
 Iteration #        134
 delta_qm =   0.211649E-06 delta_en =   0.257611E-09 tol =   0.100000E-10
 Iteration #        135
 delta_qm =   0.252802E-06 delta_en =   0.307701E-09 tol =   0.100000E-10
 Iteration #        136
 delta_qm =   0.251296E-06 delta_en =   0.305867E-09 tol =   0.100000E-10
 Iteration #        137
 delta_qm =   0.201829E-06 delta_en =   0.245658E-09 tol =   0.100000E-10
 Iteration #        138
 delta_qm =   0.162221E-06 delta_en =   0.197450E-09 tol =   0.100000E-10
 Iteration #        139
 delta_qm =   0.184580E-06 delta_en =   0.224664E-09 tol =   0.100000E-10
 Iteration #        140
 delta_qm =   0.212069E-06 delta_en =   0.258122E-09 tol =   0.100000E-10
 Iteration #        141
 delta_qm =   0.197113E-06 delta_en =   0.239918E-09 tol =   0.100000E-10
 Iteration #        142
 delta_qm =   0.152037E-06 delta_en =   0.185054E-09 tol =   0.100000E-10
 Iteration #        143
 delta_qm =   0.134014E-06 delta_en =   0.163117E-09 tol =   0.100000E-10
 Iteration #        144
 delta_qm =   0.160499E-06 delta_en =   0.195353E-09 tol =   0.100000E-10
 Iteration #        145
 delta_qm =   0.174449E-06 delta_en =   0.212333E-09 tol =   0.100000E-10
 Iteration #        146
 delta_qm =   0.151843E-06 delta_en =   0.184818E-09 tol =   0.100000E-10
 Iteration #        147
 delta_qm =   0.115688E-06 delta_en =   0.140811E-09 tol =   0.100000E-10
 Iteration #        148
 delta_qm =   0.114536E-06 delta_en =   0.139409E-09 tol =   0.100000E-10
 Iteration #        149
 delta_qm =   0.137903E-06 delta_en =   0.167850E-09 tol =   0.100000E-10
 Iteration #        150
 delta_qm =   0.140639E-06 delta_en =   0.171181E-09 tol =   0.100000E-10
 Iteration #        151
 delta_qm =   0.115280E-06 delta_en =   0.140314E-09 tol =   0.100000E-10
 Iteration #        152
 delta_qm =   0.904465E-07 delta_en =   0.110088E-09 tol =   0.100000E-10
 Iteration #        153
 delta_qm =   0.996494E-07 delta_en =   0.121289E-09 tol =   0.100000E-10
 Iteration #        154
 delta_qm =   0.116518E-06 delta_en =   0.141821E-09 tol =   0.100000E-10
 Iteration #        155
 delta_qm =   0.111142E-06 delta_en =   0.135278E-09 tol =   0.100000E-10
 Iteration #        156
 delta_qm =   0.868498E-07 delta_en =   0.105710E-09 tol =   0.100000E-10
 Iteration #        157
 delta_qm =   0.735539E-07 delta_en =   0.895270E-10 tol =   0.100000E-10
 Iteration #        158
 delta_qm =   0.868640E-07 delta_en =   0.105727E-09 tol =   0.100000E-10
 Iteration #        159
 delta_qm =   0.965859E-07 delta_en =   0.117561E-09 tol =   0.100000E-10
 Iteration #        160
 delta_qm =   0.861911E-07 delta_en =   0.104908E-09 tol =   0.100000E-10
 Iteration #        161
 delta_qm =   0.657010E-07 delta_en =   0.799687E-10 tol =   0.100000E-10
 Iteration #        162
 delta_qm =   0.621465E-07 delta_en =   0.756424E-10 tol =   0.100000E-10
 Iteration #        163
 delta_qm =   0.750364E-07 delta_en =   0.913314E-10 tol =   0.100000E-10
 Iteration #        164
 delta_qm =   0.784756E-07 delta_en =   0.955174E-10 tol =   0.100000E-10
 Iteration #        165
 delta_qm =   0.657661E-07 delta_en =   0.800479E-10 tol =   0.100000E-10
 Iteration #        166
 delta_qm =   0.507329E-07 delta_en =   0.617501E-10 tol =   0.100000E-10
 Iteration #        167
 delta_qm =   0.538100E-07 delta_en =   0.654954E-10 tol =   0.100000E-10
 Iteration #        168
 delta_qm =   0.638359E-07 delta_en =   0.776986E-10 tol =   0.100000E-10
 Iteration #        169
 delta_qm =   0.624908E-07 delta_en =   0.760614E-10 tol =   0.100000E-10
 Iteration #        170
 delta_qm =   0.496396E-07 delta_en =   0.604194E-10 tol =   0.100000E-10
 Iteration #        171
 delta_qm =   0.406063E-07 delta_en =   0.494244E-10 tol =   0.100000E-10
 Iteration #        172
 delta_qm =   0.469462E-07 delta_en =   0.571411E-10 tol =   0.100000E-10
 Iteration #        173
 delta_qm =   0.533163E-07 delta_en =   0.648946E-10 tol =   0.100000E-10
 Iteration #        174
 delta_qm =   0.488055E-07 delta_en =   0.594041E-10 tol =   0.100000E-10
 Iteration #        175
 delta_qm =   0.374268E-07 delta_en =   0.455545E-10 tol =   0.100000E-10
 Iteration #        176
 delta_qm =   0.338442E-07 delta_en =   0.411938E-10 tol =   0.100000E-10
 Iteration #        177
 delta_qm =   0.407351E-07 delta_en =   0.495812E-10 tol =   0.100000E-10
 Iteration #        178
 delta_qm =   0.436576E-07 delta_en =   0.531383E-10 tol =   0.100000E-10
 Iteration #        179
 delta_qm =   0.374567E-07 delta_en =   0.455908E-10 tol =   0.100000E-10
 Iteration #        180
 delta_qm =   0.286128E-07 delta_en =   0.348264E-10 tol =   0.100000E-10
 Iteration #        181
 delta_qm =   0.290883E-07 delta_en =   0.354052E-10 tol =   0.100000E-10
 Iteration #        182
 delta_qm =   0.348772E-07 delta_en =   0.424511E-10 tol =   0.100000E-10
 Iteration #        183
 delta_qm =   0.350345E-07 delta_en =   0.426426E-10 tol =   0.100000E-10
 Iteration #        184
 delta_qm =   0.283655E-07 delta_en =   0.345254E-10 tol =   0.100000E-10
 Iteration #        185
 delta_qm =   0.225565E-07 delta_en =   0.274549E-10 tol =   0.100000E-10
 Iteration #        186
[...]
 Iteration #          6
 delta_qm =   0.580889E-04 delta_en =   0.707036E-07 tol =   0.100000E-10
 Iteration #          7
 delta_qm =   0.445763E-04 delta_en =   0.542566E-07 tol =   0.100000E-10
 Iteration #          8
 delta_qm =   0.363492E-04 delta_en =   0.442429E-07 tol =   0.100000E-10
 Iteration #          9
 delta_qm =   0.336708E-04 delta_en =   0.409828E-07 tol =   0.100000E-10
 Iteration #         10
 delta_qm =   0.318290E-04 delta_en =   0.387410E-07 tol =   0.100000E-10
 Iteration #         11
 delta_qm =   0.269560E-04 delta_en =   0.328098E-07 tol =   0.100000E-10
 Iteration #         12
 delta_qm =   0.208911E-04 delta_en =   0.254278E-07 tol =   0.100000E-10
 Iteration #         13
 delta_qm =   0.200380E-04 delta_en =   0.243895E-07 tol =   0.100000E-10
 Iteration #         14
 delta_qm =   0.230434E-04 delta_en =   0.280476E-07 tol =   0.100000E-10
 Iteration #         15
 delta_qm =   0.232461E-04 delta_en =   0.282942E-07 tol =   0.100000E-10
 Iteration #         16
 delta_qm =   0.191437E-04 delta_en =   0.233010E-07 tol =   0.100000E-10
 Iteration #         17
 delta_qm =   0.147101E-04 delta_en =   0.179046E-07 tol =   0.100000E-10
 Iteration #         18
 delta_qm =   0.157809E-04 delta_en =   0.192079E-07 tol =   0.100000E-10
 Iteration #         19
 delta_qm =   0.191064E-04 delta_en =   0.232555E-07 tol =   0.100000E-10
 Iteration #         20
 delta_qm =   0.191981E-04 delta_en =   0.233671E-07 tol =   0.100000E-10
 Iteration #         21
 delta_qm =   0.155645E-04 delta_en =   0.189445E-07 tol =   0.100000E-10
 Iteration #         22
 delta_qm =   0.122839E-04 delta_en =   0.149514E-07 tol =   0.100000E-10
 Iteration #         23
 delta_qm =   0.139810E-04 delta_en =   0.170172E-07 tol =   0.100000E-10
 Iteration #         24
 delta_qm =   0.167629E-04 delta_en =   0.204032E-07 tol =   0.100000E-10
 Iteration #         25
 delta_qm =   0.163682E-04 delta_en =   0.199228E-07 tol =   0.100000E-10
 Iteration #         26
 delta_qm =   0.129741E-04 delta_en =   0.157916E-07 tol =   0.100000E-10
 Iteration #         27
 delta_qm =   0.106047E-04 delta_en =   0.129077E-07 tol =   0.100000E-10
 Iteration #         28
 delta_qm =   0.125254E-04 delta_en =   0.152455E-07 tol =   0.100000E-10
 Iteration #         29
 delta_qm =   0.146683E-04 delta_en =   0.178536E-07 tol =   0.100000E-10
 Iteration #         30
 delta_qm =   0.138689E-04 delta_en =   0.168807E-07 tol =   0.100000E-10
 Iteration #         31
 delta_qm =   0.107742E-04 delta_en =   0.131139E-07 tol =   0.100000E-10
 Iteration #         32
 delta_qm =   0.921067E-05 delta_en =   0.112109E-07 tol =   0.100000E-10
 Iteration #         33
 delta_qm =   0.111780E-04 delta_en =   0.136054E-07 tol =   0.100000E-10
 Iteration #         34
 delta_qm =   0.127539E-04 delta_en =   0.155236E-07 tol =   0.100000E-10
 Iteration #         35
 delta_qm =   0.116823E-04 delta_en =   0.142193E-07 tol =   0.100000E-10
 Iteration #         36
 delta_qm =   0.894266E-05 delta_en =   0.108847E-07 tol =   0.100000E-10
 Iteration #         37
 delta_qm =   0.806261E-05 delta_en =   0.981349E-08 tol =   0.100000E-10
 Iteration #         38
 delta_qm =   0.994584E-05 delta_en =   0.121057E-07 tol =   0.100000E-10
 Iteration #         39
 delta_qm =   0.110346E-04 delta_en =   0.134309E-07 tol =   0.100000E-10
 Iteration #         40
 delta_qm =   0.979850E-05 delta_en =   0.119264E-07 tol =   0.100000E-10
 Iteration #         41
 delta_qm =   0.744223E-05 delta_en =   0.905839E-08 tol =   0.100000E-10
 Iteration #         42
 delta_qm =   0.711159E-05 delta_en =   0.865596E-08 tol =   0.100000E-10
 Iteration #         43
 delta_qm =   0.882335E-05 delta_en =   0.107394E-07 tol =   0.100000E-10
 Iteration #         44
 delta_qm =   0.950437E-05 delta_en =   0.115683E-07 tol =   0.100000E-10
 Iteration #         45
 delta_qm =   0.818889E-05 delta_en =   0.996720E-08 tol =   0.100000E-10
 Iteration #         46
 delta_qm =   0.622395E-05 delta_en =   0.757555E-08 tol =   0.100000E-10
 Iteration #         47
 delta_qm =   0.631008E-05 delta_en =   0.768038E-08 tol =   0.100000E-10
 Iteration #         48
 delta_qm =   0.780118E-05 delta_en =   0.949529E-08 tol =   0.100000E-10
 Iteration #         49
 delta_qm =   0.815009E-05 delta_en =   0.991998E-08 tol =   0.100000E-10
 Iteration #         50
 delta_qm =   0.682226E-05 delta_en =   0.830379E-08 tol =   0.100000E-10
 Iteration #         51
 delta_qm =   0.524085E-05 delta_en =   0.637896E-08 tol =   0.100000E-10
 Iteration #         52
 delta_qm =   0.562081E-05 delta_en =   0.684143E-08 tol =   0.100000E-10
 Iteration #         53
 delta_qm =   0.687149E-05 delta_en =   0.836372E-08 tol =   0.100000E-10
 Iteration #         54
 delta_qm =   0.695788E-05 delta_en =   0.846886E-08 tol =   0.100000E-10
 Iteration #         55
 delta_qm =   0.566925E-05 delta_en =   0.690039E-08 tol =   0.100000E-10
 Iteration #         56
 delta_qm =   0.445073E-05 delta_en =   0.541725E-08 tol =   0.100000E-10
 Iteration #         57
 delta_qm =   0.501682E-05 delta_en =   0.610628E-08 tol =   0.100000E-10
 Iteration #         58
 delta_qm =   0.602815E-05 delta_en =   0.733722E-08 tol =   0.100000E-10
 Iteration #         59
 delta_qm =   0.591397E-05 delta_en =   0.719825E-08 tol =   0.100000E-10
 Iteration #         60
 delta_qm =   0.470302E-05 delta_en =   0.572433E-08 tol =   0.100000E-10
 Iteration #         61
 delta_qm =   0.381623E-05 delta_en =   0.464496E-08 tol =   0.100000E-10
 Iteration #         62
 delta_qm =   0.447929E-05 delta_en =   0.545202E-08 tol =   0.100000E-10
 Iteration #         63
 delta_qm =   0.526594E-05 delta_en =   0.640950E-08 tol =   0.100000E-10
 Iteration #         64
 delta_qm =   0.500498E-05 delta_en =   0.609187E-08 tol =   0.100000E-10
 Iteration #         65
 delta_qm =   0.389910E-05 delta_en =   0.474583E-08 tol =   0.100000E-10
 Iteration #         66
 delta_qm =   0.330478E-05 delta_en =   0.402246E-08 tol =   0.100000E-10
 Iteration #         67
 delta_qm =   0.399544E-05 delta_en =   0.486310E-08 tol =   0.100000E-10
 Iteration #         68
 delta_qm =   0.458012E-05 delta_en =   0.557474E-08 tol =   0.100000E-10
 Iteration #         69
 delta_qm =   0.421798E-05 delta_en =   0.513397E-08 tol =   0.100000E-10
 Iteration #         70
 delta_qm =   0.323523E-05 delta_en =   0.393780E-08 tol =   0.100000E-10
 Iteration #         71
 delta_qm =   0.288873E-05 delta_en =   0.351606E-08 tol =   0.100000E-10
 Iteration #         72
 delta_qm =   0.355670E-05 delta_en =   0.432907E-08 tol =   0.100000E-10
 Iteration #         73
 delta_qm =   0.396601E-05 delta_en =   0.482727E-08 tol =   0.100000E-10
 Iteration #         74
 delta_qm =   0.354057E-05 delta_en =   0.430945E-08 tol =   0.100000E-10
 Iteration #         75
 delta_qm =   0.269119E-05 delta_en =   0.327561E-08 tol =   0.100000E-10
 Iteration #         76
 delta_qm =   0.254535E-05 delta_en =   0.309811E-08 tol =   0.100000E-10
 Iteration #         77
 delta_qm =   0.315733E-05 delta_en =   0.384298E-08 tol =   0.100000E-10
 Iteration #         78
 delta_qm =   0.341893E-05 delta_en =   0.416139E-08 tol =   0.100000E-10
 Iteration #         79
 delta_qm =   0.296098E-05 delta_en =   0.360399E-08 tol =   0.100000E-10
 Iteration #         80
 delta_qm =   0.224866E-05 delta_en =   0.273698E-08 tol =   0.100000E-10
 Iteration #         81
 delta_qm =   0.225671E-05 delta_en =   0.274678E-08 tol =   0.100000E-10
 Iteration #         82
 delta_qm =   0.279345E-05 delta_en =   0.340008E-08 tol =   0.100000E-10
 Iteration #         83
 delta_qm =   0.293414E-05 delta_en =   0.357133E-08 tol =   0.100000E-10
 Iteration #         84
 delta_qm =   0.246816E-05 delta_en =   0.300415E-08 tol =   0.100000E-10
 Iteration #         85
 delta_qm =   0.189105E-05 delta_en =   0.230171E-08 tol =   0.100000E-10
 Iteration #         86
 delta_qm =   0.200921E-05 delta_en =   0.244553E-08 tol =   0.100000E-10
 Iteration #         87
 delta_qm =   0.246227E-05 delta_en =   0.299698E-08 tol =   0.100000E-10
 Iteration #         88
 delta_qm =   0.250688E-05 delta_en =   0.305128E-08 tol =   0.100000E-10
 Iteration #         89
 delta_qm =   0.205184E-05 delta_en =   0.249742E-08 tol =   0.100000E-10
 Iteration #         90
 delta_qm =   0.160344E-05 delta_en =   0.195165E-08 tol =   0.100000E-10
 Iteration #         91
 delta_qm =   0.179293E-05 delta_en =   0.218229E-08 tol =   0.100000E-10
 Iteration #         92
 delta_qm =   0.216164E-05 delta_en =   0.263106E-08 tol =   0.100000E-10
 Iteration #         93
 delta_qm =   0.213239E-05 delta_en =   0.259546E-08 tol =   0.100000E-10
 Iteration #         94
 delta_qm =   0.170252E-05 delta_en =   0.207224E-08 tol =   0.100000E-10
 Iteration #         95
 delta_qm =   0.137250E-05 delta_en =   0.167056E-08 tol =   0.100000E-10
 Iteration #         96
 delta_qm =   0.160091E-05 delta_en =   0.194856E-08 tol =   0.100000E-10
 Iteration #         97
 delta_qm =   0.188973E-05 delta_en =   0.230010E-08 tol =   0.100000E-10
 Iteration #         98
 delta_qm =   0.180598E-05 delta_en =   0.219817E-08 tol =   0.100000E-10
 Iteration #         99
 delta_qm =   0.141151E-05 delta_en =   0.171804E-08 tol =   0.100000E-10
 Iteration #        100
 delta_qm =   0.118654E-05 delta_en =   0.144421E-08 tol =   0.100000E-10
 Iteration #        101
 delta_qm =   0.142834E-05 delta_en =   0.173852E-08 tol =   0.100000E-10
 Iteration #        102
 delta_qm =   0.164487E-05 delta_en =   0.200207E-08 tol =   0.100000E-10
 Iteration #        103
 delta_qm =   0.152309E-05 delta_en =   0.185384E-08 tol =   0.100000E-10
 Iteration #        104
 delta_qm =   0.117089E-05 delta_en =   0.142516E-08 tol =   0.100000E-10
 Iteration #        105
 delta_qm =   0.103557E-05 delta_en =   0.126045E-08 tol =   0.100000E-10
 Iteration #        106
 delta_qm =   0.127201E-05 delta_en =   0.154825E-08 tol =   0.100000E-10
 Iteration #        107
 delta_qm =   0.142542E-05 delta_en =   0.173497E-08 tol =   0.100000E-10
 Iteration #        108
 delta_qm =   0.127934E-05 delta_en =   0.155717E-08 tol =   0.100000E-10
 Iteration #        109
 delta_qm =   0.973432E-06 delta_en =   0.118482E-08 tol =   0.100000E-10
 Iteration #        110
 delta_qm =   0.911316E-06 delta_en =   0.110922E-08 tol =   0.100000E-10
 Iteration #        111
 delta_qm =   0.112978E-05 delta_en =   0.137513E-08 tol =   0.100000E-10
 Iteration #        112
 delta_qm =   0.122975E-05 delta_en =   0.149680E-08 tol =   0.100000E-10
 Iteration #        113
 delta_qm =   0.107057E-05 delta_en =   0.130306E-08 tol =   0.100000E-10
 Iteration #        114
 delta_qm =   0.812616E-06 delta_en =   0.989085E-09 tol =   0.100000E-10
 Iteration #        115
 delta_qm =   0.807220E-06 delta_en =   0.982517E-09 tol =   0.100000E-10
 Iteration #        116
 delta_qm =   0.100019E-05 delta_en =   0.121739E-08 tol =   0.100000E-10
 Iteration #        117
 delta_qm =   0.105620E-05 delta_en =   0.128556E-08 tol =   0.100000E-10
 Iteration #        118
 delta_qm =   0.892864E-06 delta_en =   0.108676E-08 tol =   0.100000E-10
 Iteration #        119
 delta_qm =   0.682527E-06 delta_en =   0.830746E-09 tol =   0.100000E-10
 Iteration #        120
 delta_qm =   0.718269E-06 delta_en =   0.874249E-09 tol =   0.100000E-10
 Iteration #        121
 delta_qm =   0.882205E-06 delta_en =   0.107379E-08 tol =   0.100000E-10
 Iteration #        122
 delta_qm =   0.903095E-06 delta_en =   0.109921E-08 tol =   0.100000E-10
 Iteration #        123
 delta_qm =   0.742567E-06 delta_en =   0.903824E-09 tol =   0.100000E-10
 Iteration #        124
 delta_qm =   0.577835E-06 delta_en =   0.703318E-09 tol =   0.100000E-10
 Iteration #        125
 delta_qm =   0.640782E-06 delta_en =   0.779935E-09 tol =   0.100000E-10
 Iteration #        126
 delta_qm =   0.775044E-06 delta_en =   0.943353E-09 tol =   0.100000E-10
 Iteration #        127
 delta_qm =   0.768771E-06 delta_en =   0.935719E-09 tol =   0.100000E-10
 Iteration #        128
 delta_qm =   0.616308E-06 delta_en =   0.750146E-09 tol =   0.100000E-10
 Iteration #        129
 delta_qm =   0.493771E-06 delta_en =   0.600999E-09 tol =   0.100000E-10
 Iteration #        130
 delta_qm =   0.572155E-06 delta_en =   0.696405E-09 tol =   0.100000E-10
 Iteration #        131
 delta_qm =   0.678055E-06 delta_en =   0.825302E-09 tol =   0.100000E-10
 Iteration #        132
 delta_qm =   0.651579E-06 delta_en =   0.793077E-09 tol =   0.100000E-10
 Iteration #        133
 delta_qm =   0.510991E-06 delta_en =   0.621959E-09 tol =   0.100000E-10
 Iteration #        134
 delta_qm =   0.426138E-06 delta_en =   0.518679E-09 tol =   0.100000E-10
 Iteration #        135
 delta_qm =   0.510593E-06 delta_en =   0.621473E-09 tol =   0.100000E-10
 Iteration #        136
 delta_qm =   0.590645E-06 delta_en =   0.718910E-09 tol =   0.100000E-10
 Iteration #        137
 delta_qm =   0.549912E-06 delta_en =   0.669332E-09 tol =   0.100000E-10
 Iteration #        138
 delta_qm =   0.423793E-06 delta_en =   0.515824E-09 tol =   0.100000E-10
 Iteration #        139
 delta_qm =   0.371330E-06 delta_en =   0.451968E-09 tol =   0.100000E-10
 Iteration #        140
 delta_qm =   0.454886E-06 delta_en =   0.553670E-09 tol =   0.100000E-10
 Iteration #        141
 delta_qm =   0.512240E-06 delta_en =   0.623479E-09 tol =   0.100000E-10
 Iteration #        142
 delta_qm =   0.462223E-06 delta_en =   0.562600E-09 tol =   0.100000E-10
 Iteration #        143
 delta_qm =   0.352144E-06 delta_en =   0.428616E-09 tol =   0.100000E-10
 Iteration #        144
 delta_qm =   0.326344E-06 delta_en =   0.397214E-09 tol =   0.100000E-10
 Iteration #        145
 delta_qm =   0.404229E-06 delta_en =   0.492012E-09 tol =   0.100000E-10
 Iteration #        146
 delta_qm =   0.442267E-06 delta_en =   0.538310E-09 tol =   0.100000E-10
 Iteration #        147
 delta_qm =   0.387038E-06 delta_en =   0.471087E-09 tol =   0.100000E-10
 Iteration #        148
 delta_qm =   0.293716E-06 delta_en =   0.357500E-09 tol =   0.100000E-10
 Iteration #        149
 delta_qm =   0.288781E-06 delta_en =   0.351493E-09 tol =   0.100000E-10
 Iteration #        150
 delta_qm =   0.358077E-06 delta_en =   0.435837E-09 tol =   0.100000E-10
 Iteration #        151
 delta_qm =   0.380146E-06 delta_en =   0.462700E-09 tol =   0.100000E-10
 Iteration #        152
 delta_qm =   0.322969E-06 delta_en =   0.393105E-09 tol =   0.100000E-10
 Iteration #        153
 delta_qm =   0.246400E-06 delta_en =   0.299909E-09 tol =   0.100000E-10
 Iteration #        154
 delta_qm =   0.256793E-06 delta_en =   0.312558E-09 tol =   0.100000E-10
 Iteration #        155
 delta_qm =   0.316046E-06 delta_en =   0.384680E-09 tol =   0.100000E-10
 Iteration #        156
 delta_qm =   0.325293E-06 delta_en =   0.395934E-09 tol =   0.100000E-10
 Iteration #        157
 delta_qm =   0.268721E-06 delta_en =   0.327077E-09 tol =   0.100000E-10
 Iteration #        158
 delta_qm =   0.208294E-06 delta_en =   0.253527E-09 tol =   0.100000E-10
 Iteration #        159
 delta_qm =   0.229017E-06 delta_en =   0.278751E-09 tol =   0.100000E-10
 Iteration #        160
 delta_qm =   0.277853E-06 delta_en =   0.338192E-09 tol =   0.100000E-10
 Iteration #        161
 delta_qm =   0.277122E-06 delta_en =   0.337302E-09 tol =   0.100000E-10
 Iteration #        162
 delta_qm =   0.223095E-06 delta_en =   0.271542E-09 tol =   0.100000E-10
 Iteration #        163
 delta_qm =   0.177692E-06 delta_en =   0.216280E-09 tol =   0.100000E-10
 Iteration #        164
 delta_qm =   0.204481E-06 delta_en =   0.248887E-09 tol =   0.100000E-10
 Iteration #        165
 delta_qm =   0.243262E-06 delta_en =   0.296089E-09 tol =   0.100000E-10
 Iteration #        166
 delta_qm =   0.235053E-06 delta_en =   0.286098E-09 tol =   0.100000E-10
 Iteration #        167
 delta_qm =   0.184989E-06 delta_en =   0.225161E-09 tol =   0.100000E-10
 Iteration #        168
 delta_qm =   0.153089E-06 delta_en =   0.186334E-09 tol =   0.100000E-10
 Iteration #        169
 delta_qm =   0.182513E-06 delta_en =   0.222148E-09 tol =   0.100000E-10
 Iteration #        170
 delta_qm =   0.212063E-06 delta_en =   0.258115E-09 tol =   0.100000E-10
 Iteration #        171
 delta_qm =   0.198522E-06 delta_en =   0.241633E-09 tol =   0.100000E-10
 Iteration #        172
 delta_qm =   0.153397E-06 delta_en =   0.186709E-09 tol =   0.100000E-10
 Iteration #        173
 delta_qm =   0.133184E-06 delta_en =   0.162107E-09 tol =   0.100000E-10
 Iteration #        174
 delta_qm =   0.162660E-06 delta_en =   0.197983E-09 tol =   0.100000E-10
 Iteration #        175
 delta_qm =   0.184054E-06 delta_en =   0.224024E-09 tol =   0.100000E-10
 Iteration #        176
 delta_qm =   0.166981E-06 delta_en =   0.203242E-09 tol =   0.100000E-10
 Iteration #        177
 delta_qm =   0.127405E-06 delta_en =   0.155072E-09 tol =   0.100000E-10
 Iteration #        178
 delta_qm =   0.116889E-06 delta_en =   0.142273E-09 tol =   0.100000E-10
 Iteration #        179
 delta_qm =   0.144617E-06 delta_en =   0.176022E-09 tol =   0.100000E-10
 Iteration #        180
 delta_qm =   0.159036E-06 delta_en =   0.193572E-09 tol =   0.100000E-10
 Iteration #        181
 delta_qm =   0.139909E-06 delta_en =   0.170292E-09 tol =   0.100000E-10
 Iteration #        182
 delta_qm =   0.106181E-06 delta_en =   0.129239E-09 tol =   0.100000E-10
 Iteration #        183
 delta_qm =   0.103326E-06 delta_en =   0.125764E-09 tol =   0.100000E-10
 Iteration #        184
 delta_qm =   0.128180E-06 delta_en =   0.156016E-09 tol =   0.100000E-10
 Iteration #        185
 delta_qm =   0.136804E-06 delta_en =   0.166512E-09 tol =   0.100000E-10
 Iteration #        186
 delta_qm =   0.116815E-06 delta_en =   0.142182E-09 tol =   0.100000E-10
 Iteration #        187
 delta_qm =   0.889740E-07 delta_en =   0.108296E-09 tol =   0.100000E-10
 Iteration #        188
 delta_qm =   0.918157E-07 delta_en =   0.111755E-09 tol =   0.100000E-10
 Iteration #        189
 delta_qm =   0.113209E-06 delta_en =   0.137794E-09 tol =   0.100000E-10
 Iteration #        190
 delta_qm =   0.117154E-06 delta_en =   0.142596E-09 tol =   0.100000E-10
 Iteration #        191
 delta_qm =   0.972386E-07 delta_en =   0.118355E-09 tol =   0.100000E-10
 Iteration #        192
 delta_qm =   0.751052E-07 delta_en =   0.914151E-10 tol =   0.100000E-10
 Iteration #        193
 delta_qm =   0.818540E-07 delta_en =   0.996295E-10 tol =   0.100000E-10
 Iteration #        194
 delta_qm =   0.995979E-07 delta_en =   0.121227E-09 tol =   0.100000E-10
 Iteration #        195
 delta_qm =   0.998820E-07 delta_en =   0.121573E-09 tol =   0.100000E-10
 Iteration #        196
 delta_qm =   0.807541E-07 delta_en =   0.982908E-10 tol =   0.100000E-10
 Iteration #        197
 delta_qm =   0.639649E-07 delta_en =   0.778556E-10 tol =   0.100000E-10
 Iteration #        198
 delta_qm =   0.730783E-07 delta_en =   0.889481E-10 tol =   0.100000E-10
 Iteration #        199
 delta_qm =   0.872625E-07 delta_en =   0.106213E-09 tol =   0.100000E-10
 Iteration #        200
 delta_qm =   0.847832E-07 delta_en =   0.103195E-09 tol =   0.100000E-10

%%%% ELECTRONS %%%%%%%%%%%%%%%%%%%%%%%%%%%%%%%%%%%%%%%%%%%%%%%%%%%%%%%%%%%%%%%%%
 number of electrons        =         90
 total electronic charge    =     90.0000000
 number of spin components  =  1

%%%% BOUNDARY %%%%%%%%%%%%%%%%%%%%%%%%%%%%%%%%%%%%%%%%%%%%%%%%%%%%%%%%%%%%%%%%%%
 boundary mode              = electronic           
 boundary is built as a function of a smooth density
 function type              =  1 
 using the optimal SCCS function with parameters 
 rhomax                     =      0.0050000 
 rhomin                     =      0.0001000 

%%%% DIELECTRIC %%%%%%%%%%%%%%%%%%%%%%%%%%%%%%%%%%%%%%%%%%%%%%%%%%%%%%%%%%%%%%%%%
 dielectric build on homogeneous background
 environment bulk permitt.  =    100.0000000 
 dielectric flags
 need gradient              =  F 
 need factor depend. sqrt   =  F 
 need gradient of logarithm =  T 
