
     Program PWSCF v.6.1 (svn rev. 13369) starts on 19Oct2017 at 16:24:19 

     This program is part of the open-source Quantum ESPRESSO suite
     for quantum simulation of materials; please cite
         "P. Giannozzi et al., J. Phys.:Condens. Matter 21 395502 (2009);
          URL http://www.quantum-espresso.org", 
     in publications or presentations arising from this work. More details at
     http://www.quantum-espresso.org/quote

     Parallel version (MPI), running on     1 processors
     Reading input from neutral.in

     Current dimensions of program PWSCF are:
     Max number of different atomic species (ntypx) = 10
     Max number of k-points (npk) =  40000
     Max angular momentum in pseudopotentials (lmaxx) =  3
               file C.pbe-rrkjus.UPF: wavefunction(s)  2S 2P renormalized
               file O.pbe-rrkjus.UPF: wavefunction(s)  2S renormalized

     gamma-point specific algorithms are used

     Subspace diagonalization in iterative solution of the eigenvalue problem:
     a serial algorithm will be used

 
     G-vector sticks info
     --------------------
     sticks:   dense  smooth     PW     G-vecs:    dense   smooth      PW
     Sum        2205    1099    269               330909   116965   14571
 


     bravais-lattice index     =            8
     lattice parameter (alat)  =      10.6881  a.u.
     unit-cell volume          =    4181.1215 (a.u.)^3
     number of atoms/cell      =           10
     number of atomic types    =            3
     number of electrons       =        90.00
     number of Kohn-Sham states=           80
     kinetic-energy cutoff     =      35.0000  Ry
     charge density cutoff     =     280.0000  Ry
     convergence threshold     =      5.0E-02
     mixing beta               =       0.7000
     number of iterations used =            8  plain     mixing
     Exchange-correlation      = PBE ( 1  4  3  4 0 0)
 

     Environ Module
     ==============

     Plese cite
         O. Andreussi, I. Dabo and N. Marzari, J. Chem. Phys. 136, 064102 (2012)         
     in publications or presentations arising from this work.

     compensation onset threshold      =               0.1000E+03 

     Electrostatic Setup
     -------------------
     electrostatic problem to solve    = poisson                  
     numerical solver adopted          = direct                   
     type of auxiliary density adopted = none                     
     type of core tool for poisson     = fft                      
     type of core tool for s(r) deriv  = analytic                 



     celldm(1)=  10.688100  celldm(2)=   0.866025  celldm(3)=   3.954220
     celldm(4)=   0.000000  celldm(5)=   0.000000  celldm(6)=   0.000000

     crystal axes: (cart. coord. in units of alat)
               a(1) = (   1.000000   0.000000   0.000000 )  
               a(2) = (   0.000000   0.866025   0.000000 )  
               a(3) = (   0.000000   0.000000   3.954220 )  

     reciprocal axes: (cart. coord. in units 2 pi/alat)
               b(1) = (  1.000000  0.000000  0.000000 )  
               b(2) = (  0.000000  1.154701  0.000000 )  
               b(3) = (  0.000000  0.000000  0.252894 )  


     PseudoPot. # 1 for C  read from file:
     /home/andreo/PWSCF/espresso-6.1-Environ-1.0/Environ/tests/../..//pseudo/C.pbe-rrkjus.UPF
     MD5 check sum: 00fb224312de0c5b6853bd333518df6f
     Pseudo is Ultrasoft, Zval =  4.0
     Generated by new atomic code, or converted to UPF format
     Using radial grid of  627 points,  4 beta functions with: 
                l(1) =   0
                l(2) =   0
                l(3) =   1
                l(4) =   1
     Q(r) pseudized with 0 coefficients 


     PseudoPot. # 2 for O  read from file:
     /home/andreo/PWSCF/espresso-6.1-Environ-1.0/Environ/tests/../..//pseudo/O.pbe-rrkjus.UPF
     MD5 check sum: 390ba29e75625707450f3bd3f0eb6be9
     Pseudo is Ultrasoft, Zval =  6.0
     Generated by new atomic code, or converted to UPF format
     Using radial grid of 1269 points,  4 beta functions with: 
                l(1) =   0
                l(2) =   0
                l(3) =   1
                l(4) =   1
     Q(r) pseudized with 0 coefficients 


     PseudoPot. # 3 for Pt read from file:
     /home/andreo/PWSCF/espresso-6.1-Environ-1.0/Environ/tests/../..//pseudo/Pt.pbe-n-rrkjus_psl.0.1.UPF
     MD5 check sum: df5be8f5ed4f66d4aed38ca70ec8d507
     Pseudo is Ultrasoft + core correction, Zval = 10.0
     Generated using "atomic" code by A. Dal Corso  v.5.0.2 svn rev. 9415
     Using radial grid of 1277 points,  6 beta functions with: 
                l(1) =   0
                l(2) =   0
                l(3) =   1
                l(4) =   1
                l(5) =   2
                l(6) =   2
     Q(r) pseudized with 0 coefficients 


     atomic species   valence    mass     pseudopotential
        C              4.00     1.00000     C ( 1.00)
        O              6.00     1.00000     O ( 1.00)
        Pt            10.00     1.00000     Pt( 1.00)

     No symmetry found



   Cartesian axes

     site n.     atom                  positions (alat units)
         1           C   tau(   1) = (   0.4991611   0.4347567   1.2070461  )
         2           O   tau(   2) = (   0.4991542   0.4322212   1.4109013  )
         3           Pt  tau(   3) = (   0.7542339   0.0091745   0.8413229  )
         4           Pt  tau(   4) = (   0.2441023   0.0091745   0.8413226  )
         5           Pt  tau(   5) = (   0.0000034   0.4416918   0.8391348  )
         6           Pt  tau(   6) = (   0.4991682   0.4417635   0.8776299  )
         7           Pt  tau(   7) = (   0.0000038   0.7300598   0.4308181  )
         8           Pt  tau(   8) = (   0.4991683   0.7202168   0.4447460  )
         9           Pt  tau(   9) = (   0.2524172   0.2949237   0.4386572  )
        10           Pt  tau(  10) = (   0.7459196   0.2949237   0.4386575  )

     number of k points=     1  Marzari-Vanderbilt smearing, width (Ry)=  0.0300
                       cart. coord. in units 2pi/alat
        k(    1) = (   0.0000000   0.0000000   0.0000000), wk =   2.0000000

     Dense  grid:   165455 G-vectors     FFT dimensions: (  60,  50, 225)

     Smooth grid:    58483 G-vectors     FFT dimensions: (  45,  36, 160)

     Estimated max dynamical RAM per process >     216.67MB

     Initial potential from superposition of free atoms
     Check: negative starting charge=   -0.001782

     starting charge   89.99859, renormalised to   90.00000

     negative rho (up, down):  1.782E-03 0.000E+00
     Starting wfc are   80 randomized atomic wfcs

     total cpu time spent up to now is        5.6 secs

     per-process dynamical memory:   188.0 Mb

     Self-consistent Calculation

     iteration #  1     ecut=    35.00 Ry     beta=0.70
     Davidson diagonalization with overlap
     ethr =  1.00E-02,  avg # of iterations =  8.0

     negative rho (up, down):  1.109E-03 0.000E+00

     add environment contribution to local potential

     total cpu time spent up to now is        9.1 secs

     total energy              =    -623.07845200 Ry
     Harris-Foulkes estimate   =    -624.45738907 Ry
     estimated scf accuracy    <       1.79975746 Ry
     electrostatic embedding   =       0.00000000 Ry
     correction to one-el term =       0.00000000 Ry

     iteration #  2     ecut=    35.00 Ry     beta=0.70
     Davidson diagonalization with overlap
     ethr =  2.00E-03,  avg # of iterations =  5.0

     negative rho (up, down):  1.632E-02 0.000E+00

     add environment contribution to local potential

     total cpu time spent up to now is       12.4 secs

     total energy              =    -620.30392293 Ry
     Harris-Foulkes estimate   =    -665.91715178 Ry
     estimated scf accuracy    <      26.84434569 Ry
     electrostatic embedding   =      -0.00155769 Ry
     correction to one-el term =      39.42822398 Ry

     iteration #  3     ecut=    35.00 Ry     beta=0.70
     Davidson diagonalization with overlap
     ethr =  2.00E-03,  avg # of iterations =  9.0

     negative rho (up, down):  1.009E-02 0.000E+00

     add environment contribution to local potential

     total cpu time spent up to now is       16.0 secs

     total energy              =    -622.97331853 Ry
     Harris-Foulkes estimate   =    -654.11298235 Ry
     estimated scf accuracy    <      35.70316489 Ry
     electrostatic embedding   =       0.00161223 Ry
     correction to one-el term =      28.89646517 Ry

     iteration #  4     ecut=    35.00 Ry     beta=0.70
     Davidson diagonalization with overlap
     ethr =  2.00E-03,  avg # of iterations =  4.0

     negative rho (up, down):  5.551E-03 0.000E+00

     add environment contribution to local potential

     total cpu time spent up to now is       18.8 secs

     total energy              =    -623.53503107 Ry
     Harris-Foulkes estimate   =    -654.81352399 Ry
     estimated scf accuracy    <      10.20852564 Ry
     electrostatic embedding   =       0.00016787 Ry
     correction to one-el term =      30.08192727 Ry

     iteration #  5     ecut=    35.00 Ry     beta=0.70
     Davidson diagonalization with overlap
     ethr =  2.00E-03,  avg # of iterations =  2.0

     negative rho (up, down):  4.045E-03 0.000E+00

     add environment contribution to local potential

     total cpu time spent up to now is       21.4 secs

     total energy              =    -624.03193073 Ry
     Harris-Foulkes estimate   =    -656.57245192 Ry
     estimated scf accuracy    <       1.47159136 Ry
     electrostatic embedding   =      -0.00012028 Ry
     correction to one-el term =      32.28857080 Ry

     iteration #  6     ecut=    35.00 Ry     beta=0.70
     Davidson diagonalization with overlap
     ethr =  1.64E-03,  avg # of iterations =  1.0

     negative rho (up, down):  2.109E-03 0.000E+00

     add environment contribution to local potential

     total cpu time spent up to now is       23.9 secs

     total energy              =    -624.11307944 Ry
     Harris-Foulkes estimate   =    -655.46224060 Ry
     estimated scf accuracy    <       0.19462286 Ry
     electrostatic embedding   =      -0.00002687 Ry
     correction to one-el term =      31.31025427 Ry

     iteration #  7     ecut=    35.00 Ry     beta=0.70
     Davidson diagonalization with overlap
     ethr =  2.16E-04,  avg # of iterations =  6.0

     negative rho (up, down):  1.971E-03 0.000E+00

     add environment contribution to local potential

     total cpu time spent up to now is       26.7 secs

     total energy              =    -624.12178132 Ry
     Harris-Foulkes estimate   =    -655.68113504 Ry
     estimated scf accuracy    <       0.12219014 Ry
     electrostatic embedding   =       0.00001865 Ry
     correction to one-el term =      31.53432567 Ry

     iteration #  8     ecut=    35.00 Ry     beta=0.70
     Davidson diagonalization with overlap
     ethr =  1.36E-04,  avg # of iterations =  1.0

     negative rho (up, down):  1.489E-03 0.000E+00

     add environment contribution to local potential

     total cpu time spent up to now is       29.2 secs

     total energy              =    -624.12948081 Ry
     Harris-Foulkes estimate   =    -655.49108651 Ry
     estimated scf accuracy    <       0.06082761 Ry
     electrostatic embedding   =       0.00003537 Ry
     correction to one-el term =      31.35053081 Ry

     iteration #  9     ecut=    35.00 Ry     beta=0.70
     Davidson diagonalization with overlap
     ethr =  6.76E-05,  avg # of iterations =  1.0

     negative rho (up, down):  1.839E-03 0.000E+00

     total cpu time spent up to now is       31.6 secs

     End of self-consistent calculation

          k = 0.0000 0.0000 0.0000 (  7286 PWs)   bands (ev):

   -29.7779 -15.7541 -13.9333 -13.1757 -12.5253 -12.5018 -12.3571 -11.6464
   -11.4838 -10.6721 -10.4996 -10.4173 -10.1525 -10.1175 -10.0846  -9.8483
    -9.2663  -9.2233  -9.1588  -8.9783  -8.8845  -8.8266  -8.7637  -8.7404
    -8.7263  -8.5663  -8.5383  -8.4400  -8.3635  -8.0689  -7.9814  -7.2773
    -7.1165  -7.0118  -6.6987  -6.5686  -6.5397  -6.3580  -6.2570  -6.0469
    -5.9193  -5.8785  -5.6599  -5.6214  -5.5811  -5.5726  -5.3893  -4.3626
    -3.9471  -3.8904  -3.4681  -2.8539  -2.7207  -1.8277  -1.4293  -1.3071
    -0.9635  -0.1992   0.1120   0.3867   0.4716   0.9001   1.6637   1.8758
     2.1259   2.2286   2.6052   2.7780   3.0398   3.0735   3.6352   3.6557
     4.1307   4.4202   4.5593   4.8095   4.9073   5.0580   5.1396   5.3141

     the Fermi energy is    -5.4834 ev

!    total energy              =    -624.10611054 Ry
     Harris-Foulkes estimate   =    -654.97555157 Ry
     estimated scf accuracy    <       0.03417044 Ry

     The total energy is the sum of the following terms:

     one-electron contribution =   -3998.36760389 Ry
     hartree contribution      =    2033.49647786 Ry
     xc contribution           =    -263.27403799 Ry
     ewald contribution        =    1573.20467954 Ry
     smearing contrib. (-TS)   =      -0.00369929 Ry
     electrostatic embedding   =       0.00003338 Ry
     correction to one-el term =      30.83803985 Ry

     convergence has been achieved in   9 iterations

     negative rho (up, down):  1.839E-03 0.000E+00

     Forces acting on atoms (cartesian axes, Ry/au):

     atom    1 type  1   force =     0.00014500   -0.00474581    0.02211152
     atom    2 type  2   force =     0.00003704    0.00040176    0.08719972
     atom    3 type  3   force =     0.00125206    0.01952432    0.03576113
     atom    4 type  3   force =    -0.00040031    0.01995802    0.03587094
     atom    5 type  3   force =    -0.00158342    0.00981540   -0.02256287
     atom    6 type  3   force =     0.00063578   -0.00068072    0.05693097
     atom    7 type  3   force =    -0.00136112   -0.01082271   -0.07287299
     atom    8 type  3   force =     0.00005301   -0.01250533   -0.04268493
     atom    9 type  3   force =     0.00676685   -0.01072304   -0.05023247
     atom   10 type  3   force =    -0.00554489   -0.01022190   -0.04952101

     Total force =     0.167307     Total SCF correction =     0.535214
     SCF correction compared to forces is large: reduce conv_thr to get better values

     Writing output data file pwscf.save
 
     init_run     :      5.21s CPU      5.33s WALL (       1 calls)
     electrons    :     25.25s CPU     26.69s WALL (       1 calls)
     forces       :      3.40s CPU      3.44s WALL (       1 calls)

     Called by init_run:
     wfcinit      :      0.40s CPU      0.40s WALL (       1 calls)
     potinit      :      1.86s CPU      1.89s WALL (       1 calls)

     Called by electrons:
     c_bands      :     10.96s CPU     11.00s WALL (       9 calls)
     sum_band     :      6.66s CPU      7.07s WALL (       9 calls)
     v_of_rho     :      2.83s CPU      2.88s WALL (      10 calls)
     newd         :      3.90s CPU      4.24s WALL (      10 calls)
     mix_rho      :      0.32s CPU      0.32s WALL (       9 calls)

     Called by c_bands:
     init_us_2    :      0.08s CPU      0.09s WALL (      19 calls)
     regterg      :     10.33s CPU     10.37s WALL (       9 calls)

     Called by sum_band:
     sum_band:bec :      0.00s CPU      0.00s WALL (       9 calls)
     addusdens    :      4.56s CPU      4.94s WALL (       9 calls)

     Called by *egterg:
     h_psi        :      8.17s CPU      8.16s WALL (      47 calls)
     s_psi        :      0.43s CPU      0.42s WALL (      47 calls)
     g_psi        :      0.08s CPU      0.08s WALL (      37 calls)
     rdiaghg      :      0.40s CPU      0.40s WALL (      46 calls)

     Called by h_psi:
     h_psi:pot    :      8.12s CPU      8.11s WALL (      47 calls)
     h_psi:calbec :      0.42s CPU      0.43s WALL (      47 calls)
     vloc_psi     :      7.27s CPU      7.27s WALL (      47 calls)
     add_vuspsi   :      0.42s CPU      0.41s WALL (      47 calls)

     General routines
     calbec       :      0.68s CPU      0.69s WALL (      60 calls)
     fft          :      2.32s CPU      2.36s WALL (     200 calls)
     ffts         :      0.08s CPU      0.08s WALL (      19 calls)
     fftw         :      7.49s CPU      7.46s WALL (    2312 calls)
     interpolate  :      0.34s CPU      0.37s WALL (      19 calls)
     davcio       :      0.00s CPU      0.00s WALL (       1 calls)
 
     Parallel routines
     fft_scatter  :      0.91s CPU      0.94s WALL (    2531 calls)
 
     Environ routines
     calc_eelect  :      0.00s CPU      0.01s WALL (      18 calls)
     calc_velect  :      0.75s CPU      0.75s WALL (      16 calls)
     calc_felect  :      0.08s CPU      0.08s WALL (       1 calls)
 
     PWSCF        :    34.23s CPU        38.16s WALL

 
   This run was terminated on:  16:24:57  19Oct2017            

=------------------------------------------------------------------------------=
   JOB DONE.
=------------------------------------------------------------------------------=

%%%% IONS %%%%%%%%%%%%%%%%%%%%%%%%%%%%%%%%%%%%%%%%%%%%%%%%%%%%%%%%%%%%%%%%%%%%%%
 number of ions             =         10
 ionic center of charge     =      0.3882415     0.3750182     0.7201831
 total ionic charge         =    -90.0000000
 ionic dipole               =      0.0000000     0.0000000     0.0000000
 ionic quadrupole (pc)      =   -730.5101255  -614.6110457  -876.7220256
 ionic quadrupole (gauss)   =   -741.7601255  -625.8610457  -887.9720256
 ion   1 type =  1 coordinates =      5.3350841     4.6467234    12.9010299
 ion   2 type =  2 coordinates =      5.3350096     4.6196233    15.0798543
 ion   3 type =  3 coordinates =      8.0613271     0.0980580     8.9921429
 ion   4 type =  3 coordinates =      2.6089894     0.0980583     8.9921406
 ion   5 type =  3 coordinates =      0.0000366     4.7208463     8.9687569
 ion   6 type =  3 coordinates =      5.3351596     4.7216127     9.3801964
 ion   7 type =  3 coordinates =      0.0000411     7.8029520     4.6046265
 ion   8 type =  3 coordinates =      5.3351612     7.6977491     4.7534894
 ion   9 type =  3 coordinates =      2.6978606     3.1521739     4.6884123
 ion  10 type =  3 coordinates =      7.9724637     3.1521745     4.6884152

%%%% SYSTEM %%%%%%%%%%%%%%%%%%%%%%%%%%%%%%%%%%%%%%%%%%%%%%%%%%%%%%%%%%%%%%%%%%%%
 system is built from all present ionic types
 system defined dimension   =  0 
 system defined axis        =  3 
 system center              =      0.3882415     0.3750182     0.7201831 
 system width               =      1.5145225 

%%%% ELECTRONS %%%%%%%%%%%%%%%%%%%%%%%%%%%%%%%%%%%%%%%%%%%%%%%%%%%%%%%%%%%%%%%%%
 number of electrons        =         90
 total electronic charge    =     90.0000000
 number of spin components  =  1

%%%% ELECTRONS %%%%%%%%%%%%%%%%%%%%%%%%%%%%%%%%%%%%%%%%%%%%%%%%%%%%%%%%%%%%%%%%%
 number of electrons        =         90
 total electronic charge    =     90.0000000
 number of spin components  =  1

%%%% ELECTRONS %%%%%%%%%%%%%%%%%%%%%%%%%%%%%%%%%%%%%%%%%%%%%%%%%%%%%%%%%%%%%%%%%
 number of electrons        =         90
 total electronic charge    =     90.0000000
 number of spin components  =  1

%%%% ELECTRONS %%%%%%%%%%%%%%%%%%%%%%%%%%%%%%%%%%%%%%%%%%%%%%%%%%%%%%%%%%%%%%%%%
 number of electrons        =         90
 total electronic charge    =     90.0000000
 number of spin components  =  1

%%%% ELECTRONS %%%%%%%%%%%%%%%%%%%%%%%%%%%%%%%%%%%%%%%%%%%%%%%%%%%%%%%%%%%%%%%%%
 number of electrons        =         90
 total electronic charge    =     90.0000000
 number of spin components  =  1

%%%% ELECTRONS %%%%%%%%%%%%%%%%%%%%%%%%%%%%%%%%%%%%%%%%%%%%%%%%%%%%%%%%%%%%%%%%%
 number of electrons        =         90
 total electronic charge    =     90.0000000
 number of spin components  =  1

%%%% ELECTRONS %%%%%%%%%%%%%%%%%%%%%%%%%%%%%%%%%%%%%%%%%%%%%%%%%%%%%%%%%%%%%%%%%
 number of electrons        =         90
 total electronic charge    =     90.0000000
 number of spin components  =  1

%%%% ELECTRONS %%%%%%%%%%%%%%%%%%%%%%%%%%%%%%%%%%%%%%%%%%%%%%%%%%%%%%%%%%%%%%%%%
 number of electrons        =         90
 total electronic charge    =     90.0000000
 number of spin components  =  1

%%%% ELECTRONS %%%%%%%%%%%%%%%%%%%%%%%%%%%%%%%%%%%%%%%%%%%%%%%%%%%%%%%%%%%%%%%%%
 number of electrons        =         90
 total electronic charge    =     90.0000000
 number of spin components  =  1
