
     Program PWSCF v.6.7MaX starts on 22Jan2021 at 12:32:25 

     This program is part of the open-source Quantum ESPRESSO suite
     for quantum simulation of materials; please cite
         "P. Giannozzi et al., J. Phys.:Condens. Matter 21 395502 (2009);
         "P. Giannozzi et al., J. Phys.:Condens. Matter 29 465901 (2017);
          URL http://www.quantum-espresso.org", 
     in publications or presentations arising from this work. More details at
     http://www.quantum-espresso.org/quote

     Parallel version (MPI), running on     1 processors

     MPI processes distributed on     1 nodes
     Reading input from charged.in

     Current dimensions of program PWSCF are:
     Max number of different atomic species (ntypx) = 10
     Max number of k-points (npk) =  40000
     Max angular momentum in pseudopotentials (lmaxx) =  3
     file C.pbe-rrkjus.UPF: wavefunction(s)  2S 2P renormalized
     file O.pbe-rrkjus.UPF: wavefunction(s)  2S renormalized

     gamma-point specific algorithms are used

     Subspace diagonalization in iterative solution of the eigenvalue problem:
     a serial algorithm will be used


     G-vector sticks info
     --------------------
     sticks:   dense  smooth     PW     G-vecs:    dense   smooth      PW
     Sum        2357    1099    269               366833   116965   14571



     bravais-lattice index     =            8
     lattice parameter (alat)  =      10.6881  a.u.
     unit-cell volume          =    4181.1215 (a.u.)^3
     number of atoms/cell      =           10
     number of atomic types    =            3
     number of electrons       =        89.00
     number of Kohn-Sham states=           80
     kinetic-energy cutoff     =      35.0000  Ry
     charge density cutoff     =     300.0000  Ry
     scf convergence threshold =      5.0E-06
     mixing beta               =       0.7000
     number of iterations used =            8  plain     mixing
     Exchange-correlation= PBE
                           (   1   4   3   4   0   0   0)


     Environ Module
     ==============

     Plese cite
         O. Andreussi, I. Dabo and N. Marzari, J. Chem. Phys. 136, 064102 (2012)         
     in publications or presentations arising from this work.

     compensation onset threshold      =               0.1000E+03 
     static permittivity               =                   100.00 
     epsilon calculation mode          =                     full 

     Electrostatic Setup
     -------------------
     electrostatic problem to solve    = generalized              
     numerical solver adopted          = cg                       
     type of auxiliary density adopted = none                     
     type of core tool for poisson     = fft                      



     celldm(1)=  10.688100  celldm(2)=   0.866025  celldm(3)=   3.954220
     celldm(4)=   0.000000  celldm(5)=   0.000000  celldm(6)=   0.000000

     crystal axes: (cart. coord. in units of alat)
               a(1) = (   1.000000   0.000000   0.000000 )  
               a(2) = (   0.000000   0.866025   0.000000 )  
               a(3) = (   0.000000   0.000000   3.954220 )  

     reciprocal axes: (cart. coord. in units 2 pi/alat)
               b(1) = (  1.000000  0.000000  0.000000 )  
               b(2) = (  0.000000  1.154701  0.000000 )  
               b(3) = (  0.000000  0.000000  0.252894 )  


     PseudoPot. # 1 for C  read from file:
     /Users/gabrielmedrano/Desktop/q-e/Environ/tests/../..//pseudo/C.pbe-rrkjus.UPF
     MD5 check sum: c9ac5a99bc85b198593446162950cd17
     Pseudo is Ultrasoft, Zval =  4.0
     Generated by new atomic code, or converted to UPF format
     Using radial grid of  627 points,  4 beta functions with: 
                l(1) =   0
                l(2) =   0
                l(3) =   1
                l(4) =   1
     Q(r) pseudized with 0 coefficients 


     PseudoPot. # 2 for O  read from file:
     /Users/gabrielmedrano/Desktop/q-e/Environ/tests/../..//pseudo/O.pbe-rrkjus.UPF
     MD5 check sum: fadcf19ee70a498d3030e2e79cf929a4
     Pseudo is Ultrasoft, Zval =  6.0
     Generated by new atomic code, or converted to UPF format
     Using radial grid of 1269 points,  4 beta functions with: 
                l(1) =   0
                l(2) =   0
                l(3) =   1
                l(4) =   1
     Q(r) pseudized with 0 coefficients 


     PseudoPot. # 3 for Pt read from file:
     /Users/gabrielmedrano/Desktop/q-e/Environ/tests/../..//pseudo/Pt.pbe-n-rrkjus_psl.0.1.UPF
     MD5 check sum: 957548fe13c2a9232dd96292d902c87c
     Pseudo is Ultrasoft + core correction, Zval = 10.0
     Generated using "atomic" code by A. Dal Corso  v.5.0.2 svn rev. 9415
     Using radial grid of 1277 points,  6 beta functions with: 
                l(1) =   0
                l(2) =   0
                l(3) =   1
                l(4) =   1
                l(5) =   2
                l(6) =   2
     Q(r) pseudized with 0 coefficients 


     atomic species   valence    mass     pseudopotential
        C              4.00     1.00000     C ( 1.00)
        O              6.00     1.00000     O ( 1.00)
        Pt            10.00     1.00000     Pt( 1.00)

     No symmetry found



   Cartesian axes

     site n.     atom                  positions (alat units)
         1           C   tau(   1) = (   0.4991611   0.4347567   1.2070461  )
         2           O   tau(   2) = (   0.4991542   0.4322212   1.4109013  )
         3           Pt  tau(   3) = (   0.7542339   0.0091745   0.8413229  )
         4           Pt  tau(   4) = (   0.2441023   0.0091745   0.8413226  )
         5           Pt  tau(   5) = (   0.0000034   0.4416918   0.8391348  )
         6           Pt  tau(   6) = (   0.4991682   0.4417635   0.8776299  )
         7           Pt  tau(   7) = (   0.0000038   0.7300598   0.4308181  )
         8           Pt  tau(   8) = (   0.4991683   0.7202168   0.4447460  )
         9           Pt  tau(   9) = (   0.2524172   0.2949237   0.4386572  )
        10           Pt  tau(  10) = (   0.7459196   0.2949237   0.4386575  )

     number of k points=     1  Marzari-Vanderbilt smearing, width (Ry)=  0.0300
                       cart. coord. in units 2pi/alat
        k(    1) = (   0.0000000   0.0000000   0.0000000), wk =   2.0000000

     Dense  grid:   183417 G-vectors     FFT dimensions: (  60,  54, 240)

     Smooth grid:    58483 G-vectors     FFT dimensions: (  45,  36, 160)

     Estimated max dynamical RAM per process >     754.41 MB

     Initial potential from superposition of free atoms

     starting charge   89.99859, renormalised to   89.00000

     negative rho (up, down):  3.052E-03 0.000E+00
     Starting wfcs are   80 randomized atomic wfcs

     total cpu time spent up to now is        7.4 secs

     Self-consistent Calculation

     iteration #  1     ecut=    35.00 Ry     beta= 0.70
     Davidson diagonalization with overlap
     ethr =  1.00E-02,  avg # of iterations = 10.0

     negative rho (up, down):  2.867E-03 0.000E+00

     add environment contribution to local potential
     polarization accuracy = 5.9E-06, # of iterations =  27

     total cpu time spent up to now is       15.0 secs

     total energy              =    -622.70870731 Ry
     estimated scf accuracy    <       1.83046796 Ry
     electrostatic embedding   =       0.03381190 Ry
     correction to one-el term =      -0.00000000 Ry

     iteration #  2     ecut=    35.00 Ry     beta= 0.70
     Davidson diagonalization with overlap
     ethr =  2.06E-03,  avg # of iterations =  9.0

     negative rho (up, down):  2.090E-02 0.000E+00

     add environment contribution to local potential
     polarization accuracy = 2.4E-06, # of iterations =  45

     total cpu time spent up to now is       25.2 secs

     total energy              =    -618.06082756 Ry
     estimated scf accuracy    <      48.30565599 Ry
     electrostatic embedding   =       0.01520206 Ry
     correction to one-el term =       9.04388133 Ry

     iteration #  3     ecut=    35.00 Ry     beta= 0.70
     Davidson diagonalization with overlap
     ethr =  2.06E-03,  avg # of iterations =  2.0

     negative rho (up, down):  7.229E-03 0.000E+00

     add environment contribution to local potential
     polarization accuracy = 5.9E-06, # of iterations =  27

     total cpu time spent up to now is       32.5 secs

     total energy              =    -623.29386564 Ry
     estimated scf accuracy    <       2.83081974 Ry
     electrostatic embedding   =       0.20856611 Ry
     correction to one-el term =       9.09694608 Ry

     iteration #  4     ecut=    35.00 Ry     beta= 0.70
     Davidson diagonalization with overlap
     ethr =  2.06E-03,  avg # of iterations =  1.0

     negative rho (up, down):  1.017E-02 0.000E+00

     add environment contribution to local potential
     polarization accuracy = 5.2E-06, # of iterations =  32

     total cpu time spent up to now is       40.2 secs

     total energy              =    -623.59418465 Ry
     estimated scf accuracy    <       1.87419670 Ry
     electrostatic embedding   =       0.21538051 Ry
     correction to one-el term =      10.35128321 Ry

     iteration #  5     ecut=    35.00 Ry     beta= 0.70
     Davidson diagonalization with overlap
     ethr =  2.06E-03,  avg # of iterations =  1.0

     negative rho (up, down):  1.010E-02 0.000E+00

     add environment contribution to local potential
     polarization accuracy = 8.1E-06, # of iterations =  34

     total cpu time spent up to now is       48.2 secs

     total energy              =    -623.68720774 Ry
     estimated scf accuracy    <       0.37556441 Ry
     electrostatic embedding   =       0.21571605 Ry
     correction to one-el term =       9.86083976 Ry

     iteration #  6     ecut=    35.00 Ry     beta= 0.70
     Davidson diagonalization with overlap
     ethr =  4.22E-04,  avg # of iterations =  2.0

     negative rho (up, down):  6.969E-03 0.000E+00

     add environment contribution to local potential
     polarization accuracy = 4.6E-06, # of iterations =  32

     total cpu time spent up to now is       56.0 secs

     total energy              =    -623.68441299 Ry
     estimated scf accuracy    <       0.24983983 Ry
     electrostatic embedding   =       0.21017592 Ry
     correction to one-el term =       9.21064629 Ry

     iteration #  7     ecut=    35.00 Ry     beta= 0.70
     Davidson diagonalization with overlap
     ethr =  2.81E-04,  avg # of iterations =  2.0

     negative rho (up, down):  4.880E-03 0.000E+00

     add environment contribution to local potential
     polarization accuracy = 6.8E-06, # of iterations =  28

     total cpu time spent up to now is       63.3 secs

     total energy              =    -623.68805091 Ry
     estimated scf accuracy    <       0.05510817 Ry
     electrostatic embedding   =       0.20668934 Ry
     correction to one-el term =       8.70423421 Ry

     iteration #  8     ecut=    35.00 Ry     beta= 0.70
     Davidson diagonalization with overlap
     ethr =  6.19E-05,  avg # of iterations = 16.0

     negative rho (up, down):  4.048E-03 0.000E+00

     add environment contribution to local potential
     polarization accuracy = 7.6E-06, # of iterations =  28

     total cpu time spent up to now is       70.9 secs

     total energy              =    -623.69285496 Ry
     estimated scf accuracy    <       0.04079971 Ry
     electrostatic embedding   =       0.20259637 Ry
     correction to one-el term =       8.21244030 Ry

     iteration #  9     ecut=    35.00 Ry     beta= 0.70
     Davidson diagonalization with overlap
     ethr =  4.58E-05,  avg # of iterations =  1.0

     negative rho (up, down):  3.806E-03 0.000E+00

     add environment contribution to local potential
     polarization accuracy = 4.4E-06, # of iterations =  28

     total cpu time spent up to now is       78.3 secs

     total energy              =    -623.69481935 Ry
     estimated scf accuracy    <       0.03136361 Ry
     electrostatic embedding   =       0.20071091 Ry
     correction to one-el term =       8.07340323 Ry

     iteration # 10     ecut=    35.00 Ry     beta= 0.70
     Davidson diagonalization with overlap
     ethr =  3.52E-05,  avg # of iterations =  1.0

     negative rho (up, down):  3.572E-03 0.000E+00

     add environment contribution to local potential
     polarization accuracy = 4.3E-06, # of iterations =  28

     total cpu time spent up to now is       84.9 secs

     total energy              =    -623.69716927 Ry
     estimated scf accuracy    <       0.00064152 Ry
     electrostatic embedding   =       0.19947623 Ry
     correction to one-el term =       7.93298658 Ry

     iteration # 11     ecut=    35.00 Ry     beta= 0.70
     Davidson diagonalization with overlap
     ethr =  7.21E-07,  avg # of iterations =  9.0

     negative rho (up, down):  3.568E-03 0.000E+00

     add environment contribution to local potential
     polarization accuracy = 9.1E-06, # of iterations =  28

     total cpu time spent up to now is       91.7 secs

     total energy              =    -623.69722034 Ry
     estimated scf accuracy    <       0.00176494 Ry
     electrostatic embedding   =       0.19893694 Ry
     correction to one-el term =       7.93528838 Ry

     iteration # 12     ecut=    35.00 Ry     beta= 0.70
     Davidson diagonalization with overlap
     ethr =  7.21E-07,  avg # of iterations =  1.0

     negative rho (up, down):  3.574E-03 0.000E+00

     add environment contribution to local potential
     polarization accuracy = 4.6E-06, # of iterations =  28

     total cpu time spent up to now is       98.3 secs

     total energy              =    -623.69724863 Ry
     estimated scf accuracy    <       0.00142401 Ry
     electrostatic embedding   =       0.19818317 Ry
     correction to one-el term =       7.86932063 Ry

     iteration # 13     ecut=    35.00 Ry     beta= 0.70
     Davidson diagonalization with overlap
     ethr =  7.21E-07,  avg # of iterations =  1.0

     negative rho (up, down):  3.566E-03 0.000E+00

     add environment contribution to local potential
     polarization accuracy = 4.8E-06, # of iterations =  28

     total cpu time spent up to now is      104.9 secs

     total energy              =    -623.69733319 Ry
     estimated scf accuracy    <       0.00009910 Ry
     electrostatic embedding   =       0.19817444 Ry
     correction to one-el term =       7.87807288 Ry

     iteration # 14     ecut=    35.00 Ry     beta= 0.70
     Davidson diagonalization with overlap
     ethr =  1.11E-07,  avg # of iterations =  1.0

     negative rho (up, down):  3.565E-03 0.000E+00

     add environment contribution to local potential
     polarization accuracy = 6.3E-06, # of iterations =  28

     total cpu time spent up to now is      111.5 secs

     total energy              =    -623.69733889 Ry
     estimated scf accuracy    <       0.00005354 Ry
     electrostatic embedding   =       0.19798689 Ry
     correction to one-el term =       7.86256028 Ry

     iteration # 15     ecut=    35.00 Ry     beta= 0.70
     Davidson diagonalization with overlap
     ethr =  6.02E-08,  avg # of iterations =  1.0

     negative rho (up, down):  3.565E-03 0.000E+00

     add environment contribution to local potential
     polarization accuracy = 5.0E-06, # of iterations =  28

     total cpu time spent up to now is      118.0 secs

     total energy              =    -623.69734358 Ry
     estimated scf accuracy    <       0.00001980 Ry
     electrostatic embedding   =       0.19784970 Ry
     correction to one-el term =       7.85256542 Ry

     iteration # 16     ecut=    35.00 Ry     beta= 0.70
     Davidson diagonalization with overlap
     ethr =  2.23E-08,  avg # of iterations =  2.0

     negative rho (up, down):  3.564E-03 0.000E+00

     add environment contribution to local potential
     polarization accuracy = 5.9E-06, # of iterations =  28

     total cpu time spent up to now is      124.6 secs

     total energy              =    -623.69734435 Ry
     estimated scf accuracy    <       0.00001576 Ry
     electrostatic embedding   =       0.19761459 Ry
     correction to one-el term =       7.83743259 Ry

     iteration # 17     ecut=    35.00 Ry     beta= 0.70
     Davidson diagonalization with overlap
     ethr =  1.77E-08,  avg # of iterations =  1.0

     negative rho (up, down):  3.564E-03 0.000E+00

     add environment contribution to local potential
     polarization accuracy = 3.5E-06, # of iterations =  31

     total cpu time spent up to now is      131.5 secs

     total energy              =    -623.69734502 Ry
     estimated scf accuracy    <       0.00001662 Ry
     electrostatic embedding   =       0.19767970 Ry
     correction to one-el term =       7.84198165 Ry

     iteration # 18     ecut=    35.00 Ry     beta= 0.70
     Davidson diagonalization with overlap
     ethr =  1.77E-08,  avg # of iterations =  1.0

     negative rho (up, down):  3.565E-03 0.000E+00

     add environment contribution to local potential
     polarization accuracy = 6.1E-06, # of iterations =  28

     total cpu time spent up to now is      138.1 secs

     total energy              =    -623.69734598 Ry
     estimated scf accuracy    <       0.00000865 Ry
     electrostatic embedding   =       0.19765799 Ry
     correction to one-el term =       7.84170105 Ry

     iteration # 19     ecut=    35.00 Ry     beta= 0.70
     Davidson diagonalization with overlap
     ethr =  9.71E-09,  avg # of iterations =  1.0

     negative rho (up, down):  3.564E-03 0.000E+00

     the potential shift due to the Gaussian-smeared nuclei is    -0.4600 ev

     total cpu time spent up to now is      141.1 secs

     End of self-consistent calculation

          k = 0.0000 0.0000 0.0000 (  7286 PWs)   bands (ev):

   -29.5091 -16.0289 -14.3763 -13.1691 -12.9153 -12.3630 -12.3580 -12.2032
   -12.0331 -11.1915 -11.0596 -10.9460 -10.7206 -10.6784 -10.6060 -10.4719
    -9.7906  -9.7468  -9.6948  -9.4933  -9.4443  -9.3984  -9.3599  -9.3147
    -9.3020  -9.1199  -9.1022  -9.0092  -8.8981  -8.6656  -8.5512  -7.8092
    -7.6790  -7.4145  -7.1678  -7.1364  -7.0685  -6.9041  -6.7376  -6.6197
    -6.4344  -6.4321  -6.2257  -6.1931  -6.1487  -5.9833  -5.8215  -4.7566
    -4.4419  -4.3676  -3.7812  -3.1050  -2.9585  -1.9900  -1.6708  -1.5888
    -0.2401  -0.0750   0.0228   0.3423   0.8255   1.1955   1.3822   1.4395
     2.2894   2.5067   2.6791   2.8565   2.9835   3.3108   4.1813   4.5549
     4.6417   4.7082   4.9497   5.2937   5.3871   5.4474   5.5638   5.6448

     the Fermi energy is    -6.0597 ev

!    total energy              =    -623.69734522 Ry
     estimated scf accuracy    <       0.00000197 Ry
     smearing contrib. (-TS)   =      -0.00114283 Ry
     internal energy E=F+TS    =    -623.69620239 Ry

     The total energy is F=E-TS. E is the sum of the following terms:
     one-electron contribution =   -3947.67228310 Ry
     hartree contribution      =    2005.51204220 Ry
     xc contribution           =    -262.77904808 Ry
     ewald contribution        =    1573.20467954 Ry
     electrostatic embedding   =       0.19763735 Ry
     correction to one-el term =       7.84076971 Ry

     WARNING: you are using the parabolic pbc correction;
              the potential shift above must be added to 
              band and Fermi energies.

     convergence has been achieved in  19 iterations

     negative rho (up, down):  3.564E-03 0.000E+00
 forces lc
       1    0.0001    0.0056   -0.0758
       2    0.0001    0.0041   -0.3372
       3   -0.0035   -0.0033    0.0490
       4    0.0035   -0.0033    0.0491
       5   -0.0001    0.0016    0.0252
       6    0.0001    0.0046    0.0152
       7   -0.0006    0.0075   -0.2146
       8    0.0005    0.0093   -0.2082
       9   -0.0089   -0.0072   -0.2301
      10    0.0089   -0.0073   -0.2309

     Forces acting on atoms (cartesian axes, Ry/au):

     atom    1 type  1   force =    -0.00001780   -0.00421346    0.06748545
     atom    2 type  2   force =    -0.00009362    0.00127277   -0.05524456
     atom    3 type  3   force =     0.00074947    0.01298836    0.03209007
     atom    4 type  3   force =     0.00021295    0.01318036    0.03257606
     atom    5 type  3   force =    -0.00169553    0.01103173   -0.00305343
     atom    6 type  3   force =     0.00073079    0.00825736    0.04830616
     atom    7 type  3   force =    -0.00139479   -0.01243804   -0.03707309
     atom    8 type  3   force =     0.00045693   -0.02079046   -0.01924100
     atom    9 type  3   force =     0.01927361   -0.00481469   -0.03310379
     atom   10 type  3   force =    -0.01822201   -0.00447394   -0.03274188

     Total force =     0.133582     Total SCF correction =     0.006041

     Writing output data file /Users/gabrielmedrano/Desktop/q-e/Environ/tests/../..//tempdir/pwscf.save/

     init_run     :      6.96s CPU      7.27s WALL (       1 calls)
     electrons    :    145.96s CPU    133.75s WALL (       1 calls)
     forces       :      3.97s CPU      4.15s WALL (       1 calls)

     Called by init_run:
     wfcinit      :      0.34s CPU      0.28s WALL (       1 calls)
     potinit      :      1.95s CPU      2.03s WALL (       1 calls)
     hinit0       :      3.84s CPU      3.91s WALL (       1 calls)

     Called by electrons:
     c_bands      :     17.43s CPU     11.91s WALL (      19 calls)
     sum_band     :     34.91s CPU     20.80s WALL (      19 calls)
     v_of_rho     :      6.18s CPU      7.07s WALL (      20 calls)
     newd         :     12.09s CPU     15.47s WALL (      20 calls)
     mix_rho      :      0.78s CPU      0.93s WALL (      19 calls)

     Called by c_bands:
     init_us_2    :      0.18s CPU      0.19s WALL (      39 calls)
     regterg      :     16.58s CPU     11.04s WALL (      19 calls)

     Called by *egterg:
     rdiaghg      :      0.45s CPU      0.45s WALL (      82 calls)
     h_psi        :     10.75s CPU      9.23s WALL (      83 calls)
     s_psi        :      1.66s CPU      0.13s WALL (      83 calls)
     g_psi        :      0.06s CPU      0.06s WALL (      63 calls)

     Called by h_psi:
     h_psi:calbec :      0.60s CPU      0.46s WALL (      83 calls)
     vloc_psi     :      8.34s CPU      8.41s WALL (      83 calls)
     add_vuspsi   :      1.75s CPU      0.30s WALL (      83 calls)

     General routines
     calbec       :      0.82s CPU      0.68s WALL (     106 calls)
     fft          :     31.47s CPU     33.17s WALL (    1644 calls)
     ffts         :      0.14s CPU      0.14s WALL (      39 calls)
     fftw         :      8.31s CPU      8.37s WALL (    4278 calls)
     interpolate  :      0.43s CPU      0.47s WALL (      20 calls)

     Parallel routines
     fft_scatt_xy :      2.69s CPU      2.71s WALL (    1414 calls)
     fft_scatt_yz :      3.78s CPU      3.81s WALL (    1414 calls)

     Environ routines
     calc_eelect  :      0.04s CPU      0.04s WALL (      38 calls)
     calc_velect  :     64.20s CPU     66.69s WALL (      36 calls)
     dielectric   :      0.48s CPU      0.54s WALL (      22 calls)
     calc_felect  :      0.18s CPU      0.19s WALL (       1 calls)

     PWSCF        :   2m37.02s CPU   2m25.36s WALL


   This run was terminated on:  12:34:51  22Jan2021            

=------------------------------------------------------------------------------=
   JOB DONE.
=------------------------------------------------------------------------------=
 Calling electrostatic_initbase now
 electrolyte_distance:    0.0000000000000000     
 sc_distance:    0.0000000000000000     
 velectrostatic started
 vreference created

%%%% IONS %%%%%%%%%%%%%%%%%%%%%%%%%%%%%%%%%%%%%%%%%%%%%%%%%%%%%%%%%%%%%%%%%%%%%%
 number of ions             =         10
 ionic center of charge     =      0.3882415     0.3750182     0.7201831
 total ionic charge         =    -90.0000000
 ionic dipole               =      0.0000000     0.0000000     0.0000000
 ionic quadrupole (pc)      =   -730.5101255  -614.6110457  -876.7220256
 ionic quadrupole (gauss)   =   -741.7601255  -625.8610457  -887.9720256
 ion   1 type =  1 coordinates =      5.3350841     4.6467234    12.9010299
 ion   2 type =  2 coordinates =      5.3350096     4.6196233    15.0798543
 ion   3 type =  3 coordinates =      8.0613271     0.0980580     8.9921429
 ion   4 type =  3 coordinates =      2.6089894     0.0980583     8.9921406
 ion   5 type =  3 coordinates =      0.0000366     4.7208463     8.9687569
 ion   6 type =  3 coordinates =      5.3351596     4.7216127     9.3801964
 ion   7 type =  3 coordinates =      0.0000411     7.8029520     4.6046265
 ion   8 type =  3 coordinates =      5.3351612     7.6977491     4.7534894
 ion   9 type =  3 coordinates =      2.6978606     3.1521739     4.6884123
 ion  10 type =  3 coordinates =      7.9724637     3.1521745     4.6884152

%%%% SYSTEM %%%%%%%%%%%%%%%%%%%%%%%%%%%%%%%%%%%%%%%%%%%%%%%%%%%%%%%%%%%%%%%%%%%%
 system is built from all present ionic types
 system defined dimension   =  0 
 system defined axis        =  3 
 system center              =      0.3882415     0.3750182     0.7201831 
 system width               =      0.7019013 

%%%% IONS %%%%%%%%%%%%%%%%%%%%%%%%%%%%%%%%%%%%%%%%%%%%%%%%%%%%%%%%%%%%%%%%%%%%%%
 number of ions             =         10
 ionic center of charge     =      0.3882415     0.3750182     0.7201831
 total ionic charge         =    -90.0000000
 ionic dipole               =      0.0000000     0.0000000     0.0000000
 ionic quadrupole (pc)      =   -730.5101255  -614.6110457  -876.7220256
 ionic quadrupole (gauss)   =   -741.7601255  -625.8610457  -887.9720256
 ion   1 type =  1 coordinates =      5.3350841     4.6467234    12.9010299
 ion   2 type =  2 coordinates =      5.3350096     4.6196233    15.0798543
 ion   3 type =  3 coordinates =      8.0613271     0.0980580     8.9921429
 ion   4 type =  3 coordinates =      2.6089894     0.0980583     8.9921406
 ion   5 type =  3 coordinates =      0.0000366     4.7208463     8.9687569
 ion   6 type =  3 coordinates =      5.3351596     4.7216127     9.3801964
 ion   7 type =  3 coordinates =      0.0000411     7.8029520     4.6046265
 ion   8 type =  3 coordinates =      5.3351612     7.6977491     4.7534894
 ion   9 type =  3 coordinates =      2.6978606     3.1521739     4.6884123
 ion  10 type =  3 coordinates =      7.9724637     3.1521745     4.6884152

%%%% SYSTEM %%%%%%%%%%%%%%%%%%%%%%%%%%%%%%%%%%%%%%%%%%%%%%%%%%%%%%%%%%%%%%%%%%%%
 system is built from all present ionic types
 system defined dimension   =  0 
 system defined axis        =  3 
 system center              =      0.3882415     0.3750182     0.7201831 
 system width               =      0.7019013 

%%%% ELECTRONS %%%%%%%%%%%%%%%%%%%%%%%%%%%%%%%%%%%%%%%%%%%%%%%%%%%%%%%%%%%%%%%%%
 number of electrons        =         89
 total electronic charge    =     89.0000000

%%%% ELECTRONS %%%%%%%%%%%%%%%%%%%%%%%%%%%%%%%%%%%%%%%%%%%%%%%%%%%%%%%%%%%%%%%%%
 number of electrons        =         89
 total electronic charge    =     89.0000000

%%%% BOUNDARY %%%%%%%%%%%%%%%%%%%%%%%%%%%%%%%%%%%%%%%%%%%%%%%%%%%%%%%%%%%%%%%%%%
 boundary label             = solvent              
 boundary mode              = full                 
 boundary is built as a function of a smooth density
 function type              =  2 
 using the modified SCCS function with parameters 
 rhomax                     =      0.0050000 
 rhomin                     =      0.0001000 
 volume of the QM region    =   1610.6621773 
 surface of the QM region   =    255.0444501 

%%%% DIELECTRIC %%%%%%%%%%%%%%%%%%%%%%%%%%%%%%%%%%%%%%%%%%%%%%%%%%%%%%%%%%%%%%%%%
 dielectric build on homogeneous background
 environment bulk permitt.  =    100.0000000 
 dielectric flags
 need gradient              =  F 
 need factor depend. sqrt   =  T 
 total dielectric charge    =      0.0000000

%%%% DENSITY %%%%%%%%%%%%%%%%%%%%%%%%%%%%%%%%%%%%%%%%%%%%%%%%%%%%%%%%%%%%%%%%%%%
 density label              = dvtot                                                                           
 integral of density        =      0.000000000    

%%%% DENSITY %%%%%%%%%%%%%%%%%%%%%%%%%%%%%%%%%%%%%%%%%%%%%%%%%%%%%%%%%%%%%%%%%%%
 density label              = vreference                                                                      
 integral of density        =      0.000000000    

%%%% DENSITY %%%%%%%%%%%%%%%%%%%%%%%%%%%%%%%%%%%%%%%%%%%%%%%%%%%%%%%%%%%%%%%%%%%
 density label              = velectrostatic                                                                  
 integral of density        =      0.000000000    

%%%% CHARGES %%%%%%%%%%%%%%%%%%%%%%%%%%%%%%%%%%%%%%%%%%%%%%%%%%%%%%%%%%%%%%%%%%%
 total number of charges    =         99
 total charge               =     -1.0000000

%%%% DENSITY %%%%%%%%%%%%%%%%%%%%%%%%%%%%%%%%%%%%%%%%%%%%%%%%%%%%%%%%%%%%%%%%%%%
 density label              = vsoftcavity                                                                     
 integral of density        =      0.000000000    

%%%% ELECTRONS %%%%%%%%%%%%%%%%%%%%%%%%%%%%%%%%%%%%%%%%%%%%%%%%%%%%%%%%%%%%%%%%%
 number of electrons        =         89
 total electronic charge    =     89.0000000

%%%% ELECTRONS %%%%%%%%%%%%%%%%%%%%%%%%%%%%%%%%%%%%%%%%%%%%%%%%%%%%%%%%%%%%%%%%%
 number of electrons        =         89
 total electronic charge    =     89.0000000

%%%% BOUNDARY %%%%%%%%%%%%%%%%%%%%%%%%%%%%%%%%%%%%%%%%%%%%%%%%%%%%%%%%%%%%%%%%%%
 boundary label             = solvent              
 boundary mode              = full                 
 boundary is built as a function of a smooth density
 function type              =  2 
 using the modified SCCS function with parameters 
 rhomax                     =      0.0050000 
 rhomin                     =      0.0001000 
 volume of the QM region    =   1500.5108102 
 surface of the QM region   =    259.8848091 

%%%% DIELECTRIC %%%%%%%%%%%%%%%%%%%%%%%%%%%%%%%%%%%%%%%%%%%%%%%%%%%%%%%%%%%%%%%%%
 dielectric build on homogeneous background
 environment bulk permitt.  =    100.0000000 
 dielectric flags
 need gradient              =  F 
 need factor depend. sqrt   =  T 
 total dielectric charge    =      0.0000000

%%%% DENSITY %%%%%%%%%%%%%%%%%%%%%%%%%%%%%%%%%%%%%%%%%%%%%%%%%%%%%%%%%%%%%%%%%%%
 density label              = vreference                                                                      
 integral of density        =     0.2217134559E-11

%%%% COMPUTE ELECTROSTATIC POTENTIAL %%%%%%%%%%%%%%%%%%%%%%%%%%%%%%%%%%%%%%%%%%%
 Iteration #          1
  pAp =    1294.8846702652436       rzold =    1272.7843970631113       alpha =   0.98293263198675040     
 delta_qm =   0.267370E+00 delta_en =   0.555882E+05 tol =   0.100000E-04
 Iteration #          2
  pAp =    22303.597257793066       rzold =    681.14099997403434       alpha =    3.0539513070522196E-002
 delta_qm =   0.106433E+00 delta_en =   0.880867E+04 tol =   0.100000E-04
 Iteration #          3
  pAp =   -1.7635879909271659       rzold =   0.92560060274234790       alpha =  -0.52483947923445240     
 delta_qm =   0.438419E-01 delta_en =   0.149464E+04 tol =   0.100000E-04
 Iteration #          4
  pAp =    48.378741677922598       rzold =    2.4303355617572073       alpha =    5.0235609225576017E-002
 delta_qm =   0.612492E-01 delta_en =   0.291714E+04 tol =   0.100000E-04
 Iteration #          5
  pAp =   0.90123262187051645       rzold =  -0.77613398811857637       alpha =  -0.86119162720464248     
 delta_qm =   0.159669E-01 delta_en =   0.198243E+03 tol =   0.100000E-04
 Iteration #          6
  pAp =    1.2615383061244030       rzold =   0.35950467965481719       alpha =   0.28497325678461455     
 delta_qm =   0.558436E-02 delta_en =   0.242495E+02 tol =   0.100000E-04
 Iteration #          7
  pAp =    4.7814419331868641E-002  rzold =    2.2099419805696258E-002  alpha =   0.46219153373607619     
 delta_qm =   0.296389E-02 delta_en =   0.683092E+01 tol =   0.100000E-04
 Iteration #          8
  pAp =    6.5914620630073140E-003  rzold =    3.5901914744444533E-003  alpha =   0.54467300882961478     
 delta_qm =   0.367900E-02 delta_en =   0.105249E+02 tol =   0.100000E-04
 Iteration #          9
  pAp =    1.9236748329508394E-003  rzold =    1.7942373390627566E-003  alpha =   0.93271342345861497     
 delta_qm =   0.429381E-02 delta_en =   0.143365E+02 tol =   0.100000E-04
 Iteration #         10
  pAp =    2.3096454652840530E-003  rzold =    3.5901412214278316E-003  alpha =    1.5544122573748764     
 delta_qm =   0.441877E-02 delta_en =   0.151830E+02 tol =   0.100000E-04
 Iteration #         11
  pAp =    1.4124071496405662E-002  rzold =    1.4750071393559255E-002  alpha =    1.0443214902525026     
 delta_qm =   0.457333E-02 delta_en =   0.162637E+02 tol =   0.100000E-04
 Iteration #         12
  pAp =    5.6343104067286154E-002  rzold =    2.0579714852012702E-002  alpha =   0.36525702998961440     
 delta_qm =   0.499274E-02 delta_en =   0.193836E+02 tol =   0.100000E-04
 Iteration #         13
  pAp =    1.3271730098027119       rzold =    5.3955306410129682E-002  alpha =    4.0654312596479260E-002
 delta_qm =   0.370148E-02 delta_en =   0.106539E+02 tol =   0.100000E-04
 Iteration #         14
  pAp =    4.0963240985660409E-003  rzold =    2.4498763871574725E-003  alpha =   0.59806702990495209     
 delta_qm =   0.219645E-02 delta_en =   0.375144E+01 tol =   0.100000E-04
 Iteration #         15
  pAp =    2.3918118227522866E-003  rzold =    1.0444702217192907E-003  alpha =   0.43668578430112714     
 delta_qm =   0.144084E-02 delta_en =   0.161430E+01 tol =   0.100000E-04
 Iteration #         16
  pAp =    1.0393362123119580E-003  rzold =    4.4803732153891516E-004  alpha =   0.43108025702508307     
 delta_qm =   0.108901E-02 delta_en =   0.922188E+00 tol =   0.100000E-04
 Iteration #         17
  pAp =    4.1009955439477681E-004  rzold =    2.9484091253507554E-004  alpha =   0.71894960473731928     
 delta_qm =   0.542284E-03 delta_en =   0.228670E+00 tol =   0.100000E-04
 Iteration #         18
  pAp =    2.3603418739373867E-004  rzold =    1.3096308492642307E-004  alpha =   0.55484794966568962     
 delta_qm =   0.215580E-03 delta_en =   0.361387E-01 tol =   0.100000E-04
 Iteration #         19
  pAp =    3.5453380952610529E-005  rzold =    1.7341418037200324E-005  alpha =   0.48913298453481990     
 delta_qm =   0.118629E-03 delta_en =   0.109431E-01 tol =   0.100000E-04
 Iteration #         20
  pAp =    4.2882584194903229E-006  rzold =    2.1854759292202433E-006  alpha =   0.50964184417785063     
 delta_qm =   0.678235E-04 delta_en =   0.357698E-02 tol =   0.100000E-04
 Iteration #         21
  pAp =    4.7207364816418465E-007  rzold =    3.6044665371685649E-007  alpha =   0.76353902641796079     
 delta_qm =   0.291506E-04 delta_en =   0.660772E-03 tol =   0.100000E-04
 Iteration #         22
  pAp =    2.2676985462813394E-006  rzold =    2.1035791953476314E-007  alpha =    9.2762735099740784E-002
 delta_qm =   0.255998E-04 delta_en =   0.509600E-03 tol =   0.100000E-04
 Iteration #         23
  pAp =    1.9263087247488965E-006  rzold =    3.6469058919150127E-007  alpha =   0.18932094555042853     
 delta_qm =   0.151122E-04 delta_en =   0.177587E-03 tol =   0.100000E-04
 Iteration #         24
  pAp =    9.7241831390367284E-008  rzold =    4.9125608034939256E-008  alpha =   0.50519007440048691     
 delta_qm =   0.851742E-05 delta_en =   0.564121E-04 tol =   0.100000E-04
 Iteration #         25
  pAp =    6.6232480807586333E-008  rzold =    1.7677872644721269E-008  alpha =   0.26690639440303782     
 delta_qm =   0.551281E-05 delta_en =   0.236321E-04 tol =   0.100000E-04
 Iteration #         26
  pAp =    2.6347728996425586E-008  rzold =    8.5964588744081555E-009  alpha =   0.32626944339583797     
 delta_qm =   0.360060E-05 delta_en =   0.100810E-04 tol =   0.100000E-04
 Iteration #         27
  pAp =    2.2916502390935464E-009  rzold =    2.2153927741627085E-009  alpha =   0.96672377676577681     
 delta_qm =   0.274690E-05 delta_en =   0.586735E-05 tol =   0.100000E-04
 Charges are converged, EXIT

%%%% DENSITY %%%%%%%%%%%%%%%%%%%%%%%%%%%%%%%%%%%%%%%%%%%%%%%%%%%%%%%%%%%%%%%%%%%
 density label              = velectrostatic                                                                  
 integral of density        =     -1326.631502    

%%%% CHARGES %%%%%%%%%%%%%%%%%%%%%%%%%%%%%%%%%%%%%%%%%%%%%%%%%%%%%%%%%%%%%%%%%%%
 total number of charges    =         99
 total charge               =     -1.0000000

%%%% DENSITY %%%%%%%%%%%%%%%%%%%%%%%%%%%%%%%%%%%%%%%%%%%%%%%%%%%%%%%%%%%%%%%%%%%
 density label              = vsoftcavity                                                                     
 integral of density        =      81.51891999    

%%%% DENSITY %%%%%%%%%%%%%%%%%%%%%%%%%%%%%%%%%%%%%%%%%%%%%%%%%%%%%%%%%%%%%%%%%%%
 density label              = dvtot                                                                           
 integral of density        =     -1245.112582    

%%%% ELECTRONS %%%%%%%%%%%%%%%%%%%%%%%%%%%%%%%%%%%%%%%%%%%%%%%%%%%%%%%%%%%%%%%%%
 number of electrons        =         89
 total electronic charge    =     89.0000000

%%%% ELECTRONS %%%%%%%%%%%%%%%%%%%%%%%%%%%%%%%%%%%%%%%%%%%%%%%%%%%%%%%%%%%%%%%%%
 number of electrons        =         89
 total electronic charge    =     89.0000000

%%%% BOUNDARY %%%%%%%%%%%%%%%%%%%%%%%%%%%%%%%%%%%%%%%%%%%%%%%%%%%%%%%%%%%%%%%%%%
 boundary label             = solvent              
 boundary mode              = full                 
 boundary is built as a function of a smooth density
 function type              =  2 
 using the modified SCCS function with parameters 
 rhomax                     =      0.0050000 
 rhomin                     =      0.0001000 
 volume of the QM region    =   1509.7853945 
 surface of the QM region   =    351.8837444 

%%%% DIELECTRIC %%%%%%%%%%%%%%%%%%%%%%%%%%%%%%%%%%%%%%%%%%%%%%%%%%%%%%%%%%%%%%%%%
 dielectric build on homogeneous background
 environment bulk permitt.  =    100.0000000 
 dielectric flags
 need gradient              =  F 
 need factor depend. sqrt   =  T 
 total dielectric charge    =      0.9902366

%%%% DENSITY %%%%%%%%%%%%%%%%%%%%%%%%%%%%%%%%%%%%%%%%%%%%%%%%%%%%%%%%%%%%%%%%%%%
 density label              = vreference                                                                      
 integral of density        =     0.5461060499E-10

%%%% COMPUTE ELECTROSTATIC POTENTIAL %%%%%%%%%%%%%%%%%%%%%%%%%%%%%%%%%%%%%%%%%%%
 Warning: bad guess with residual norm =   0.276888E+05, reset to no guess
 Iteration #          1
  pAp =    1275.9768388575194       rzold =    1273.8398640966370       alpha =   0.99832522449012806     
 delta_qm =   0.188385E+00 delta_en =   0.275963E+05 tol =   0.100000E-04
 Iteration #          2
  pAp =    1466.5290617458359       rzold =    35.224640681100247       alpha =    2.4019053968945506E-002
 delta_qm =   0.244969E+00 delta_en =   0.466637E+05 tol =   0.100000E-04
 Iteration #          3
  pAp =    55.331399900180820       rzold =    1.2399111282422972       alpha =    2.2408815437150096E-002
 delta_qm =   0.260092E+00 delta_en =   0.526031E+05 tol =   0.100000E-04
 Iteration #          4
  pAp =   0.86725926223119842       rzold =   -1.0260792050218424       alpha =   -1.1831285634033446     
 delta_qm =   0.306897E-01 delta_en =   0.732388E+03 tol =   0.100000E-04
 Iteration #          5
  pAp =   0.31977331120500951       rzold =   0.19531984264796773       alpha =   0.61080720561681412     
 delta_qm =   0.118137E+00 delta_en =   0.108525E+05 tol =   0.100000E-04
 Iteration #          6
  pAp =  -0.38508560308040468       rzold =   0.24442776203387256       alpha =  -0.63473617314858899     
 delta_qm =   0.564168E-01 delta_en =   0.247498E+04 tol =   0.100000E-04
 Iteration #          7
  pAp =   0.70792191601383458       rzold =   0.17001654418709355       alpha =   0.24016284895433440     
 delta_qm =   0.808833E-02 delta_en =   0.508714E+02 tol =   0.100000E-04
 Iteration #          8
  pAp =    4.9309789317870660E-002  rzold =    1.5307177711745423E-002  alpha =   0.31042877942692521     
 delta_qm =   0.466552E-02 delta_en =   0.169261E+02 tol =   0.100000E-04
 Iteration #          9
  pAp =    3.9319324356216264E-003  rzold =    1.5863004846065306E-003  alpha =   0.40344042289112769     
 delta_qm =   0.296266E-02 delta_en =   0.682525E+01 tol =   0.100000E-04
 Iteration #         10
  pAp =    1.1317862186506419E-003  rzold =    4.5676400034618783E-004  alpha =   0.40357798391533611     
 delta_qm =   0.209806E-02 delta_en =   0.342288E+01 tol =   0.100000E-04
 Iteration #         11
  pAp =    2.3417768510537983E-004  rzold =    1.9161243416048628E-004  alpha =   0.81823523908463258     
 delta_qm =   0.136190E-02 delta_en =   0.144228E+01 tol =   0.100000E-04
 Iteration #         12
  pAp =    3.6248683663335729E-004  rzold =    2.4549619838995084E-004  alpha =   0.67725548510955069     
 delta_qm =   0.136017E-02 delta_en =   0.143860E+01 tol =   0.100000E-04
 Iteration #         13
  pAp =    2.7659640792471081E-003  rzold =    3.0484637952130501E-004  alpha =   0.11021342677894928     
 delta_qm =   0.113177E-02 delta_en =   0.996033E+00 tol =   0.100000E-04
 Iteration #         14
  pAp =    9.4058597598674024E-003  rzold =    9.1305566932192576E-004  alpha =    9.7073068558572409E-002
 delta_qm =   0.112724E-02 delta_en =   0.988076E+00 tol =   0.100000E-04
 Iteration #         15
  pAp =    1.4972679093651744E-004  rzold =    6.2492260315064478E-005  alpha =   0.41737527348435943     
 delta_qm =   0.755532E-03 delta_en =   0.443877E+00 tol =   0.100000E-04
 Iteration #         16
  pAp =    7.3561489882139610E-005  rzold =    3.1304395343131567E-005  alpha =   0.42555412340461757     
 delta_qm =   0.448568E-03 delta_en =   0.156464E+00 tol =   0.100000E-04
 Iteration #         17
  pAp =    1.8795278335488354E-005  rzold =    1.2027828711942978E-005  alpha =   0.63993884513179045     
 delta_qm =   0.424426E-03 delta_en =   0.140075E+00 tol =   0.100000E-04
 Iteration #         18
  pAp =    1.7669490215634897E-005  rzold =    1.9324893486442957E-005  alpha =    1.0936870985300569     
 delta_qm =   0.782349E-03 delta_en =   0.475946E+00 tol =   0.100000E-04
 Iteration #         19
  pAp =    1.8098340852048238E-005  rzold =    2.2514202764556042E-005  alpha =    1.2439926371487278     
 delta_qm =   0.101444E-02 delta_en =   0.800215E+00 tol =   0.100000E-04
 Iteration #         20
  pAp =    4.9744883109079465E-005  rzold =    5.5186882770201539E-005  alpha =    1.1093981796919490     
 delta_qm =   0.170215E-02 delta_en =   0.225296E+01 tol =   0.100000E-04
 Iteration #         21
  pAp =   -5.9398357489873354E-006  rzold =    1.3976571030986461E-004  alpha =   -23.530231510811195     
 delta_qm =   0.382885E-01 delta_en =   0.113997E+04 tol =   0.100000E-04
 Iteration #         22
  pAp =    4.6450314282254128       rzold =   0.11784595424744654       alpha =    2.5370324414030584E-002
 delta_qm =   0.249541E-02 delta_en =   0.484216E+01 tol =   0.100000E-04
 Iteration #         23
  pAp =    4.5225811550304055E-003  rzold =    1.3832897812004094E-004  alpha =    3.0586289859316180E-002
 delta_qm =   0.263027E-02 delta_en =   0.537968E+01 tol =   0.100000E-04
 Iteration #         24
  pAp =    1.7202314164267514E-003  rzold =   -1.4236058887749690E-005  alpha =   -8.2756649784484805E-003
 delta_qm =   0.259437E-02 delta_en =   0.523385E+01 tol =   0.100000E-04
 Iteration #         25
  pAp =    6.5472755441554723E-006  rzold =    1.6285414263859775E-005  alpha =    2.4873573983604835     
 delta_qm =   0.167619E-02 delta_en =   0.218477E+01 tol =   0.100000E-04
 Iteration #         26
  pAp =    2.0377626339149801E-004  rzold =    9.6628469111421214E-005  alpha =   0.47418903214344033     
 delta_qm =   0.623938E-03 delta_en =   0.302718E+00 tol =   0.100000E-04
 Iteration #         27
  pAp =    4.7741154745463760E-005  rzold =    2.4854452722013655E-005  alpha =   0.52060853690128350     
 delta_qm =   0.463939E-03 delta_en =   0.167370E+00 tol =   0.100000E-04
 Iteration #         28
  pAp =    2.4581472687439385E-005  rzold =    1.2610055082014773E-005  alpha =   0.51299022000655992     
 delta_qm =   0.309570E-03 delta_en =   0.745203E-01 tol =   0.100000E-04
 Iteration #         29
  pAp =    1.2570579609542311E-005  rzold =    6.8609571774767017E-006  alpha =   0.54579481540123720     
 delta_qm =   0.169465E-03 delta_en =   0.223314E-01 tol =   0.100000E-04
 Iteration #         30
  pAp =    7.3680962059544574E-006  rzold =    2.7739462356625190E-006  alpha =   0.37648072963824503     
 delta_qm =   0.131624E-03 delta_en =   0.134719E-01 tol =   0.100000E-04
 Iteration #         31
  pAp =    1.0673058378009281E-006  rzold =    8.6521482245352841E-007  alpha =   0.81065313409717021     
 delta_qm =   0.936853E-04 delta_en =   0.682494E-02 tol =   0.100000E-04
 Iteration #         32
  pAp =    4.2963151224892297E-007  rzold =    3.6645353659832355E-007  alpha =   0.85294845966979504     
 delta_qm =   0.554327E-04 delta_en =   0.238940E-02 tol =   0.100000E-04
 Iteration #         33
  pAp =    3.7441685171590496E-006  rzold =    2.6648651561178411E-007  alpha =    7.1173750430972918E-002
 delta_qm =   0.571718E-04 delta_en =   0.254167E-02 tol =   0.100000E-04
 Iteration #         34
  pAp =    2.4502994136792458E-006  rzold =    5.1841629140177832E-007  alpha =   0.21157263006619692     
 delta_qm =   0.279192E-04 delta_en =   0.606123E-03 tol =   0.100000E-04
 Iteration #         35
  pAp =    7.5544905217504937E-008  rzold =    5.0586791884478717E-008  alpha =   0.66962545970283338     
 delta_qm =   0.220440E-04 delta_en =   0.377866E-03 tol =   0.100000E-04
 Iteration #         36
  pAp =    1.9427830204096687E-008  rzold =    1.7300619167620519E-008  alpha =   0.89050701935681886     
 delta_qm =   0.110843E-04 delta_en =   0.955373E-04 tol =   0.100000E-04
 Iteration #         37
  pAp =    1.0080405629352726E-008  rzold =    7.0814880297122746E-009  alpha =   0.70250030505637351     
 delta_qm =   0.621482E-05 delta_en =   0.300340E-04 tol =   0.100000E-04
 Iteration #         38
  pAp =    4.2882474187147624E-009  rzold =    2.5044039918852087E-009  alpha =   0.58401574054600791     
 delta_qm =   0.455057E-05 delta_en =   0.161023E-04 tol =   0.100000E-04
 Iteration #         39
  pAp =    1.1643115289987844E-009  rzold =    8.0624896290966550E-010  alpha =   0.69246841831324624     
 delta_qm =   0.506770E-05 delta_en =   0.199700E-04 tol =   0.100000E-04
 Iteration #         40
  pAp =    2.8211167173265089E-010  rzold =    7.7835583284543743E-010  alpha =    2.7590344917847385     
 delta_qm =   0.306310E-04 delta_en =   0.729589E-03 tol =   0.100000E-04
 Iteration #         41
  pAp =   -1.4931879679652185E-007  rzold =    2.1461321074237954E-008  alpha =  -0.14372819453858512     
 delta_qm =   0.142696E-04 delta_en =   0.158335E-03 tol =   0.100000E-04
 Iteration #         42
  pAp =    7.9560045488971299E-008  rzold =    6.7274006669404835E-009  alpha =    8.4557526652910761E-002
 delta_qm =   0.702315E-05 delta_en =   0.383548E-04 tol =   0.100000E-04
 Iteration #         43
  pAp =    1.8180333075886966E-007  rzold =    5.8895344377232622E-009  alpha =    3.2395085464824072E-002
 delta_qm =   0.583541E-05 delta_en =   0.264788E-04 tol =   0.100000E-04
 Iteration #         44
  pAp =    1.7036804888092671E-009  rzold =    1.4621991824057682E-011  alpha =    8.5825904094712357E-003
 delta_qm =   0.593321E-05 delta_en =   0.273738E-04 tol =   0.100000E-04
 Iteration #         45
  pAp =    9.4873246711997876E-013  rzold =   -1.4851683499754303E-011  alpha =   -15.654237642819202     
 delta_qm =   0.176717E-05 delta_en =   0.242837E-05 tol =   0.100000E-04
 Charges are converged, EXIT

%%%% DENSITY %%%%%%%%%%%%%%%%%%%%%%%%%%%%%%%%%%%%%%%%%%%%%%%%%%%%%%%%%%%%%%%%%%%
 density label              = velectrostatic                                                                  
 integral of density        =     -1428.769497    

%%%% CHARGES %%%%%%%%%%%%%%%%%%%%%%%%%%%%%%%%%%%%%%%%%%%%%%%%%%%%%%%%%%%%%%%%%%%
 total number of charges    =         99
 total charge               =     -1.0000000

%%%% DENSITY %%%%%%%%%%%%%%%%%%%%%%%%%%%%%%%%%%%%%%%%%%%%%%%%%%%%%%%%%%%%%%%%%%%
 density label              = vsoftcavity                                                                     
 integral of density        =      42.27254425    

%%%% DENSITY %%%%%%%%%%%%%%%%%%%%%%%%%%%%%%%%%%%%%%%%%%%%%%%%%%%%%%%%%%%%%%%%%%%
 density label              = dvtot                                                                           
 integral of density        =     -1386.496953    

%%%% ELECTRONS %%%%%%%%%%%%%%%%%%%%%%%%%%%%%%%%%%%%%%%%%%%%%%%%%%%%%%%%%%%%%%%%%
 number of electrons        =         89
 total electronic charge    =     89.0000000

%%%% ELECTRONS %%%%%%%%%%%%%%%%%%%%%%%%%%%%%%%%%%%%%%%%%%%%%%%%%%%%%%%%%%%%%%%%%
 number of electrons        =         89
 total electronic charge    =     89.0000000

%%%% BOUNDARY %%%%%%%%%%%%%%%%%%%%%%%%%%%%%%%%%%%%%%%%%%%%%%%%%%%%%%%%%%%%%%%%%%
 boundary label             = solvent              
 boundary mode              = full                 
 boundary is built as a function of a smooth density
 function type              =  2 
 using the modified SCCS function with parameters 
 rhomax                     =      0.0050000 
 rhomin                     =      0.0001000 
 volume of the QM region    =   1507.0753977 
 surface of the QM region   =    273.4583549 

%%%% DIELECTRIC %%%%%%%%%%%%%%%%%%%%%%%%%%%%%%%%%%%%%%%%%%%%%%%%%%%%%%%%%%%%%%%%%
 dielectric build on homogeneous background
 environment bulk permitt.  =    100.0000000 
 dielectric flags
 need gradient              =  F 
 need factor depend. sqrt   =  T 
 total dielectric charge    =      0.9884533

%%%% DENSITY %%%%%%%%%%%%%%%%%%%%%%%%%%%%%%%%%%%%%%%%%%%%%%%%%%%%%%%%%%%%%%%%%%%
 density label              = vreference                                                                      
 integral of density        =    -0.2146666962E-10

%%%% COMPUTE ELECTROSTATIC POTENTIAL %%%%%%%%%%%%%%%%%%%%%%%%%%%%%%%%%%%%%%%%%%%
 Warning: bad guess with residual norm =   0.117691E+05, reset to no guess
 Iteration #          1
  pAp =    1276.5254902486847       rzold =    1273.2436077071438       alpha =   0.99742905052299302     
 delta_qm =   0.122711E+00 delta_en =   0.117092E+05 tol =   0.100000E-04
 Iteration #          2
  pAp =    2866.9923161217271       rzold =    85.336399987105068       alpha =    2.9765130344870393E-002
 delta_qm =   0.125195E+00 delta_en =   0.121879E+05 tol =   0.100000E-04
 Iteration #          3
  pAp =    21.378976649905557       rzold =    2.9535410300312233       alpha =   0.13815165610577862     
 delta_qm =   0.148611E+00 delta_en =   0.171734E+05 tol =   0.100000E-04
 Iteration #          4
  pAp =   -4.0120353736641094       rzold =   0.77137160382595549       alpha =  -0.19226440745996656     
 delta_qm =   0.938051E-01 delta_en =   0.684241E+04 tol =   0.100000E-04
 Iteration #          5
  pAp =   0.57635112307513736       rzold =  -0.44684029657234092       alpha =  -0.77529179467580833     
 delta_qm =   0.213060E-01 delta_en =   0.352988E+03 tol =   0.100000E-04
 Iteration #          6
  pAp =   0.62448795960083481       rzold =   0.20389636929666227       alpha =   0.32650168215731556     
 delta_qm =   0.738481E-02 delta_en =   0.424067E+02 tol =   0.100000E-04
 Iteration #          7
  pAp =    3.9558408313647139E-002  rzold =    1.7600868239023269E-002  alpha =   0.44493368134205735     
 delta_qm =   0.161461E-02 delta_en =   0.202717E+01 tol =   0.100000E-04
 Iteration #          8
  pAp =    3.5003574452384121E-003  rzold =    1.6379543604562081E-003  alpha =   0.46793917080792469     
 delta_qm =   0.138189E-02 delta_en =   0.148492E+01 tol =   0.100000E-04
 Iteration #          9
  pAp =    6.9847190596517808E-004  rzold =    2.7757578097338645E-004  alpha =   0.39740436029394838     
 delta_qm =   0.132019E-02 delta_en =   0.135527E+01 tol =   0.100000E-04
 Iteration #         10
  pAp =    1.8728530320447683E-004  rzold =    1.3319829546279232E-004  alpha =   0.71120527443291859     
 delta_qm =   0.101002E-02 delta_en =   0.793266E+00 tol =   0.100000E-04
 Iteration #         11
  pAp =    1.8520615168032646E-004  rzold =    1.8706701834201157E-004  alpha =    1.0100475423996556     
 delta_qm =   0.905259E-03 delta_en =   0.637239E+00 tol =   0.100000E-04
 Iteration #         12
  pAp =    5.8467631709307175E-004  rzold =    2.2820998087309704E-004  alpha =   0.39031849623690063     
 delta_qm =   0.974268E-03 delta_en =   0.738097E+00 tol =   0.100000E-04
 Iteration #         13
  pAp =    2.2114802805369746E-002  rzold =    1.1242119184788574E-003  alpha =    5.0835267597587844E-002
 delta_qm =   0.121057E-02 delta_en =   0.113956E+01 tol =   0.100000E-04
 Iteration #         14
  pAp =    2.2432726363001522E-004  rzold =    1.6325797970554679E-004  alpha =   0.72776700015745521     
 delta_qm =   0.124395E-02 delta_en =   0.120327E+01 tol =   0.100000E-04
 Iteration #         15
  pAp =    2.3540034450209314E-004  rzold =    1.7748749054119370E-004  alpha =   0.75398143922264105     
 delta_qm =   0.127702E-02 delta_en =   0.126809E+01 tol =   0.100000E-04
 Iteration #         16
  pAp =    3.8663933777865887E-004  rzold =    3.1258935005015157E-004  alpha =   0.80847787461580278     
 delta_qm =   0.134212E-02 delta_en =   0.140067E+01 tol =   0.100000E-04
 Iteration #         17
  pAp =    5.2969480704210018E-004  rzold =    3.9929916882549572E-004  alpha =   0.75382873971380915     
 delta_qm =   0.747513E-03 delta_en =   0.434504E+00 tol =   0.100000E-04
 Iteration #         18
  pAp =    4.3696076255414626E-004  rzold =    2.1361264019816896E-004  alpha =   0.48886000415586289     
 delta_qm =   0.316703E-03 delta_en =   0.779941E-01 tol =   0.100000E-04
 Iteration #         19
  pAp =    5.7337938018464216E-005  rzold =    2.6270652770763279E-005  alpha =   0.45817226218186441     
 delta_qm =   0.198413E-03 delta_en =   0.306124E-01 tol =   0.100000E-04
 Iteration #         20
  pAp =    8.8929979767589158E-006  rzold =    4.2129043094955323E-006  alpha =   0.47373274125391629     
 delta_qm =   0.104896E-03 delta_en =   0.855612E-02 tol =   0.100000E-04
 Iteration #         21
  pAp =    1.3497036017096436E-006  rzold =    9.0681642508584861E-007  alpha =   0.67186338092096787     
 delta_qm =   0.455161E-04 delta_en =   0.161096E-02 tol =   0.100000E-04
 Iteration #         22
  pAp =    7.7599123201712915E-007  rzold =    3.7196619318253710E-007  alpha =   0.47934329388701952     
 delta_qm =   0.256271E-04 delta_en =   0.510687E-03 tol =   0.100000E-04
 Iteration #         23
  pAp =    2.8465740328005023E-006  rzold =    1.8106038650582418E-007  alpha =    6.3606421058964788E-002
 delta_qm =   0.270957E-04 delta_en =   0.570897E-03 tol =   0.100000E-04
 Iteration #         24
  pAp =    7.1400739316399118E-007  rzold =    1.9494121340429211E-007  alpha =   0.27302408248246046     
 delta_qm =   0.999578E-05 delta_en =   0.776944E-04 tol =   0.100000E-04
 Iteration #         25
  pAp =    7.0640553997113524E-008  rzold =    2.1901952081601868E-008  alpha =   0.31004785271781438     
 delta_qm =   0.613771E-05 delta_en =   0.292933E-04 tol =   0.100000E-04
 Iteration #         26
  pAp =    5.2267005029082253E-008  rzold =    1.2397249244390272E-008  alpha =   0.23719073318802619     
 delta_qm =   0.462764E-05 delta_en =   0.166523E-04 tol =   0.100000E-04
 Iteration #         27
  pAp =    3.0169673294735538E-009  rzold =    1.6488326800968245E-009  alpha =   0.54651989896905440     
 delta_qm =   0.274982E-05 delta_en =   0.587984E-05 tol =   0.100000E-04
 Charges are converged, EXIT

%%%% DENSITY %%%%%%%%%%%%%%%%%%%%%%%%%%%%%%%%%%%%%%%%%%%%%%%%%%%%%%%%%%%%%%%%%%%
 density label              = velectrostatic                                                                  
 integral of density        =     -1486.244556    

%%%% CHARGES %%%%%%%%%%%%%%%%%%%%%%%%%%%%%%%%%%%%%%%%%%%%%%%%%%%%%%%%%%%%%%%%%%%
 total number of charges    =         99
 total charge               =     -1.0000000

%%%% DENSITY %%%%%%%%%%%%%%%%%%%%%%%%%%%%%%%%%%%%%%%%%%%%%%%%%%%%%%%%%%%%%%%%%%%
 density label              = vsoftcavity                                                                     
 integral of density        =      41.37566498    

%%%% DENSITY %%%%%%%%%%%%%%%%%%%%%%%%%%%%%%%%%%%%%%%%%%%%%%%%%%%%%%%%%%%%%%%%%%%
 density label              = dvtot                                                                           
 integral of density        =     -1444.868891    

%%%% ELECTRONS %%%%%%%%%%%%%%%%%%%%%%%%%%%%%%%%%%%%%%%%%%%%%%%%%%%%%%%%%%%%%%%%%
 number of electrons        =         89
 total electronic charge    =     89.0000000

%%%% ELECTRONS %%%%%%%%%%%%%%%%%%%%%%%%%%%%%%%%%%%%%%%%%%%%%%%%%%%%%%%%%%%%%%%%%
 number of electrons        =         89
 total electronic charge    =     89.0000000

%%%% BOUNDARY %%%%%%%%%%%%%%%%%%%%%%%%%%%%%%%%%%%%%%%%%%%%%%%%%%%%%%%%%%%%%%%%%%
 boundary label             = solvent              
 boundary mode              = full                 
 boundary is built as a function of a smooth density
 function type              =  2 
 using the modified SCCS function with parameters 
 rhomax                     =      0.0050000 
 rhomin                     =      0.0001000 
 volume of the QM region    =   1498.7851666 
 surface of the QM region   =    286.6682251 

%%%% DIELECTRIC %%%%%%%%%%%%%%%%%%%%%%%%%%%%%%%%%%%%%%%%%%%%%%%%%%%%%%%%%%%%%%%%%
 dielectric build on homogeneous background
 environment bulk permitt.  =    100.0000000 
 dielectric flags
 need gradient              =  F 
 need factor depend. sqrt   =  T 
 total dielectric charge    =      0.9884045

%%%% DENSITY %%%%%%%%%%%%%%%%%%%%%%%%%%%%%%%%%%%%%%%%%%%%%%%%%%%%%%%%%%%%%%%%%%%
 density label              = vreference                                                                      
 integral of density        =    -0.2798122612E-10

%%%% COMPUTE ELECTROSTATIC POTENTIAL %%%%%%%%%%%%%%%%%%%%%%%%%%%%%%%%%%%%%%%%%%%
 Warning: bad guess with residual norm =   0.135416E+05, reset to no guess
 Iteration #          1
  pAp =    1274.1569006243676       rzold =    1271.3992884160350       alpha =   0.99783573576615148     
 delta_qm =   0.131680E+00 delta_en =   0.134834E+05 tol =   0.100000E-04
 Iteration #          2
  pAp =    2321.6358073425777       rzold =    67.015990303468797       alpha =    2.8865849713171660E-002
 delta_qm =   0.143489E+00 delta_en =   0.160100E+05 tol =   0.100000E-04
 Iteration #          3
  pAp =    28.735997686157884       rzold =    3.3028730717635799       alpha =   0.11493852093935031     
 delta_qm =   0.166477E+00 delta_en =   0.215509E+05 tol =   0.100000E-04
 Iteration #          4
  pAp =   -2.7428535240148721       rzold =   0.25157842252699963       alpha =   -9.1721420894087649E-002
 delta_qm =   0.135361E+00 delta_en =   0.142476E+05 tol =   0.100000E-04
 Iteration #          5
  pAp =   0.10439957464138117       rzold =  -0.18398282503514565       alpha =   -1.7622947762683685     
 delta_qm =   0.313210E-01 delta_en =   0.762829E+03 tol =   0.100000E-04
 Iteration #          6
  pAp =   0.59544090759111512       rzold =   0.21489979872205270       alpha =   0.36090869132831366     
 delta_qm =   0.938071E-02 delta_en =   0.684270E+02 tol =   0.100000E-04
 Iteration #          7
  pAp =    5.7819615755435483E-002  rzold =    2.3105866475030500E-002  alpha =   0.39961985518484483     
 delta_qm =   0.212623E-02 delta_en =   0.351543E+01 tol =   0.100000E-04
 Iteration #          8
  pAp =    5.8574994516048511E-003  rzold =    2.4889242579547058E-003  alpha =   0.42491241843356631     
 delta_qm =   0.150191E-02 delta_en =   0.175406E+01 tol =   0.100000E-04
 Iteration #          9
  pAp =    1.1873584686611918E-003  rzold =    3.9013083560554497E-004  alpha =   0.32857039041077268     
 delta_qm =   0.145289E-02 delta_en =   0.164142E+01 tol =   0.100000E-04
 Iteration #         10
  pAp =    2.3862351718162243E-004  rzold =    1.4078586740143111E-004  alpha =   0.58999158617830361     
 delta_qm =   0.107165E-02 delta_en =   0.893030E+00 tol =   0.100000E-04
 Iteration #         11
  pAp =    1.0360632434050027E-004  rzold =    1.1007295359553243E-004  alpha =    1.0624153911085552     
 delta_qm =   0.578699E-03 delta_en =   0.260412E+00 tol =   0.100000E-04
 Iteration #         12
  pAp =    1.6440574495861266E-003  rzold =    1.3639736972586791E-004  alpha =    8.2963870733473735E-002
 delta_qm =   0.477806E-03 delta_en =   0.177525E+00 tol =   0.100000E-04
 Iteration #         13
  pAp =    1.0645980508796136E-003  rzold =    2.4317045420279535E-004  alpha =   0.22841527278946092     
 delta_qm =   0.645665E-03 delta_en =   0.324169E+00 tol =   0.100000E-04
 Iteration #         14
  pAp =    9.4132256966023749E-005  rzold =    5.8099292699837635E-005  alpha =   0.61720917539253406     
 delta_qm =   0.723699E-03 delta_en =   0.407260E+00 tol =   0.100000E-04
 Iteration #         15
  pAp =    3.1630408747029910E-005  rzold =    3.6523234790910573E-005  alpha =    1.1546874111875047     
 delta_qm =   0.895629E-03 delta_en =   0.623753E+00 tol =   0.100000E-04
 Iteration #         16
  pAp =    7.0639623326607207E-005  rzold =    8.6902680109011374E-005  alpha =    1.2302257007686861     
 delta_qm =   0.105066E-02 delta_en =   0.858385E+00 tol =   0.100000E-04
 Iteration #         17
  pAp =    3.4085837246537401E-004  rzold =    2.9421080187569322E-004  alpha =   0.86314676605334240     
 delta_qm =   0.112198E-02 delta_en =   0.978881E+00 tol =   0.100000E-04
 Iteration #         18
  pAp =    7.6556614332748331E-004  rzold =    4.9973402462439318E-004  alpha =   0.65276400867511175     
 delta_qm =   0.107110E-02 delta_en =   0.892108E+00 tol =   0.100000E-04
 Iteration #         19
  pAp =    2.6510592996655338E-004  rzold =    1.4617299391431950E-004  alpha =   0.55137579884675214     
 delta_qm =   0.674232E-03 delta_en =   0.353488E+00 tol =   0.100000E-04
 Iteration #         20
  pAp =    8.7512872410436113E-005  rzold =    4.1578383613910685E-005  alpha =   0.47511163179409438     
 delta_qm =   0.393654E-03 delta_en =   0.120500E+00 tol =   0.100000E-04
 Iteration #         21
  pAp =    2.5291980309531887E-005  rzold =    1.4306173803722738E-005  alpha =   0.56564071411723793     
 delta_qm =   0.243666E-03 delta_en =   0.461687E-01 tol =   0.100000E-04
 Iteration #         22
  pAp =    1.1309914344892453E-004  rzold =    8.3814559175158526E-006  alpha =    7.4107156446334282E-002
 delta_qm =   0.203501E-03 delta_en =   0.322025E-01 tol =   0.100000E-04
 Iteration #         23
  pAp =    5.8487114362196780E-005  rzold =    1.2453908413699931E-005  alpha =   0.21293422576083751     
 delta_qm =   0.103671E-03 delta_en =   0.835746E-02 tol =   0.100000E-04
 Iteration #         24
  pAp =    3.2923394141704703E-006  rzold =    1.6683748482263846E-006  alpha =   0.50674448723165566     
 delta_qm =   0.419370E-04 delta_en =   0.136757E-02 tol =   0.100000E-04
 Iteration #         25
  pAp =    7.9949684229496854E-007  rzold =    3.2049234935787166E-007  alpha =   0.40086756119998324     
 delta_qm =   0.248610E-04 delta_en =   0.480612E-03 tol =   0.100000E-04
 Iteration #         26
  pAp =    1.5728978773461987E-007  rzold =    6.5105260762504462E-008  alpha =   0.41391918509261638     
 delta_qm =   0.216043E-04 delta_en =   0.362940E-03 tol =   0.100000E-04
 Iteration #         27
  pAp =    2.5121376296124261E-007  rzold =    7.3558691453059561E-008  alpha =   0.29281314282294413     
 delta_qm =   0.238649E-04 delta_en =   0.442870E-03 tol =   0.100000E-04
 Iteration #         28
  pAp =    4.6128026821338616E-008  rzold =    2.9201546152384006E-008  alpha =   0.63305430916189775     
 delta_qm =   0.159998E-04 delta_en =   0.199060E-03 tol =   0.100000E-04
 Iteration #         29
  pAp =   -1.5211124452474818E-007  rzold =   -1.0675342617211544E-007  alpha =   0.70181153606133884     
 delta_qm =   0.549560E-04 delta_en =   0.234848E-02 tol =   0.100000E-04
 Iteration #         30
  pAp =    1.4562253023177676E-006  rzold =    2.6520458147213750E-007  alpha =   0.18211782273665394     
 delta_qm =   0.108986E-04 delta_en =   0.923632E-04 tol =   0.100000E-04
 Iteration #         31
  pAp =    1.4775048188169857E-008  rzold =    9.2592017257110500E-009  alpha =   0.62667827595477787     
 delta_qm =   0.479360E-05 delta_en =   0.178682E-04 tol =   0.100000E-04
 Iteration #         32
  pAp =    8.0324507597040124E-009  rzold =    2.7459346180164049E-009  alpha =   0.34185514485713320     
 delta_qm =   0.258264E-05 delta_en =   0.518661E-05 tol =   0.100000E-04
 Charges are converged, EXIT

%%%% DENSITY %%%%%%%%%%%%%%%%%%%%%%%%%%%%%%%%%%%%%%%%%%%%%%%%%%%%%%%%%%%%%%%%%%%
 density label              = velectrostatic                                                                  
 integral of density        =     -1475.372357    

%%%% CHARGES %%%%%%%%%%%%%%%%%%%%%%%%%%%%%%%%%%%%%%%%%%%%%%%%%%%%%%%%%%%%%%%%%%%
 total number of charges    =         99
 total charge               =     -1.0000000

%%%% DENSITY %%%%%%%%%%%%%%%%%%%%%%%%%%%%%%%%%%%%%%%%%%%%%%%%%%%%%%%%%%%%%%%%%%%
 density label              = vsoftcavity                                                                     
 integral of density        =      40.58264740    

%%%% DENSITY %%%%%%%%%%%%%%%%%%%%%%%%%%%%%%%%%%%%%%%%%%%%%%%%%%%%%%%%%%%%%%%%%%%
 density label              = dvtot                                                                           
 integral of density        =     -1434.789709    

%%%% ELECTRONS %%%%%%%%%%%%%%%%%%%%%%%%%%%%%%%%%%%%%%%%%%%%%%%%%%%%%%%%%%%%%%%%%
 number of electrons        =         89
 total electronic charge    =     89.0000000

%%%% ELECTRONS %%%%%%%%%%%%%%%%%%%%%%%%%%%%%%%%%%%%%%%%%%%%%%%%%%%%%%%%%%%%%%%%%
 number of electrons        =         89
 total electronic charge    =     89.0000000

%%%% BOUNDARY %%%%%%%%%%%%%%%%%%%%%%%%%%%%%%%%%%%%%%%%%%%%%%%%%%%%%%%%%%%%%%%%%%
 boundary label             = solvent              
 boundary mode              = full                 
 boundary is built as a function of a smooth density
 function type              =  2 
 using the modified SCCS function with parameters 
 rhomax                     =      0.0050000 
 rhomin                     =      0.0001000 
 volume of the QM region    =   1491.7339644 
 surface of the QM region   =    287.4595230 

%%%% DIELECTRIC %%%%%%%%%%%%%%%%%%%%%%%%%%%%%%%%%%%%%%%%%%%%%%%%%%%%%%%%%%%%%%%%%
 dielectric build on homogeneous background
 environment bulk permitt.  =    100.0000000 
 dielectric flags
 need gradient              =  F 
 need factor depend. sqrt   =  T 
 total dielectric charge    =      0.9881662

%%%% DENSITY %%%%%%%%%%%%%%%%%%%%%%%%%%%%%%%%%%%%%%%%%%%%%%%%%%%%%%%%%%%%%%%%%%%
 density label              = vreference                                                                      
 integral of density        =    -0.2444733972E-11

%%%% COMPUTE ELECTROSTATIC POTENTIAL %%%%%%%%%%%%%%%%%%%%%%%%%%%%%%%%%%%%%%%%%%%
 Warning: bad guess with residual norm =   0.128637E+05, reset to no guess
 Iteration #          1
  pAp =    1272.9586042085866       rzold =    1270.3120559614365       alpha =   0.99792094712396751     
 delta_qm =   0.128353E+00 delta_en =   0.128106E+05 tol =   0.100000E-04
 Iteration #          2
  pAp =    2202.0586607208520       rzold =    63.770106173639242       alpha =    2.8959313078773235E-002
 delta_qm =   0.134217E+00 delta_en =   0.140079E+05 tol =   0.100000E-04
 Iteration #          3
  pAp =    32.451219087572923       rzold =    3.6897107260569850       alpha =   0.11370021927681435     
 delta_qm =   0.153962E+00 delta_en =   0.184325E+05 tol =   0.100000E-04
 Iteration #          4
  pAp =   -2.9762461227614141       rzold =   0.40569396134937624       alpha =  -0.13631062237990121     
 delta_qm =   0.112411E+00 delta_en =   0.982593E+04 tol =   0.100000E-04
 Iteration #          5
  pAp =   0.23421630860037460       rzold =  -0.26628254876543622       alpha =   -1.1369086566033018     
 delta_qm =   0.271403E-01 delta_en =   0.572778E+03 tol =   0.100000E-04
 Iteration #          6
  pAp =   0.52369131764844512       rzold =   0.19171885531481564       alpha =   0.36609133826334855     
 delta_qm =   0.829926E-02 delta_en =   0.535593E+02 tol =   0.100000E-04
 Iteration #          7
  pAp =    5.0100305248906962E-002  rzold =    1.9647773788452859E-002  alpha =   0.39216874409924907     
 delta_qm =   0.216759E-02 delta_en =   0.365350E+01 tol =   0.100000E-04
 Iteration #          8
  pAp =    5.9195558810068846E-003  rzold =    2.5056702643662808E-003  alpha =   0.42328686724722325     
 delta_qm =   0.151221E-02 delta_en =   0.177820E+01 tol =   0.100000E-04
 Iteration #          9
  pAp =    5.1052127852900205E-004  rzold =    2.6162268442265357E-004  alpha =   0.51246186089732426     
 delta_qm =   0.137154E-02 delta_en =   0.146276E+01 tol =   0.100000E-04
 Iteration #         10
  pAp =    1.2994321132633524E-004  rzold =    1.0911422094883301E-004  alpha =   0.83970697534022798     
 delta_qm =   0.822065E-03 delta_en =   0.525495E+00 tol =   0.100000E-04
 Iteration #         11
  pAp =    2.4327746229063012E-004  rzold =    1.5223773637909103E-004  alpha =   0.62577821613915485     
 delta_qm =   0.594935E-03 delta_en =   0.275230E+00 tol =   0.100000E-04
 Iteration #         12
  pAp =    3.8887120780911643E-004  rzold =    1.1399043497084490E-004  alpha =   0.29313158876704215     
 delta_qm =   0.482633E-03 delta_en =   0.181130E+00 tol =   0.100000E-04
 Iteration #         13
  pAp =    9.0816025555768790E-003  rzold =    4.3353592888289999E-004  alpha =    4.7737822287397057E-002
 delta_qm =   0.649690E-03 delta_en =   0.328223E+00 tol =   0.100000E-04
 Iteration #         14
  pAp =    1.3144085938537528E-004  rzold =    6.1120317406326751E-005  alpha =   0.46500241775752782     
 delta_qm =   0.631009E-03 delta_en =   0.309619E+00 tol =   0.100000E-04
 Iteration #         15
  pAp =    4.0170277977235018E-005  rzold =    3.3142359505828436E-005  alpha =   0.82504680511821726     
 delta_qm =   0.693444E-03 delta_en =   0.373921E+00 tol =   0.100000E-04
 Iteration #         16
  pAp =    5.0545395709539637E-005  rzold =    5.4373945763687827E-005  alpha =    1.0757447834843168     
 delta_qm =   0.859448E-03 delta_en =   0.574375E+00 tol =   0.100000E-04
 Iteration #         17
  pAp =    1.3930830898928014E-004  rzold =    1.4947019405233338E-004  alpha =    1.0729452904624319     
 delta_qm =   0.107542E-02 delta_en =   0.899316E+00 tol =   0.100000E-04
 Iteration #         18
  pAp =    4.3967913866155869E-004  rzold =    3.5764174654850846E-004  alpha =   0.81341531835514669     
 delta_qm =   0.103739E-02 delta_en =   0.836829E+00 tol =   0.100000E-04
 Iteration #         19
  pAp =    3.2324750096020504E-004  rzold =    1.6365112498081596E-004  alpha =   0.50627189535786399     
 delta_qm =   0.753304E-03 delta_en =   0.441262E+00 tol =   0.100000E-04
 Iteration #         20
  pAp =    9.3339531843236371E-005  rzold =    4.9300042070255536E-005  alpha =   0.52817965867939964     
 delta_qm =   0.425642E-03 delta_en =   0.140879E+00 tol =   0.100000E-04
 Iteration #         21
  pAp =    2.1670809655521753E-005  rzold =    1.5200020592527763E-005  alpha =   0.70140529284076736     
 delta_qm =   0.223855E-03 delta_en =   0.389664E-01 tol =   0.100000E-04
 Iteration #         22
  pAp =    1.3559793878727522E-005  rzold =    7.0158187633097907E-006  alpha =   0.51739862906884904     
 delta_qm =   0.111929E-03 delta_en =   0.974191E-02 tol =   0.100000E-04
 Iteration #         23
  pAp =    6.3160926912863018E-005  rzold =    3.9671445311720633E-006  alpha =    6.2810106264671289E-002
 delta_qm =   0.119720E-03 delta_en =   0.111452E-01 tol =   0.100000E-04
 Iteration #         24
  pAp =    2.0248303972857637E-005  rzold =    4.5500337526094310E-006  alpha =   0.22471184543202441     
 delta_qm =   0.594287E-04 delta_en =   0.274631E-02 tol =   0.100000E-04
 Iteration #         25
  pAp =    1.3612587411662672E-006  rzold =    5.1885584060839520E-007  alpha =   0.38115886783130010     
 delta_qm =   0.415310E-04 delta_en =   0.134122E-02 tol =   0.100000E-04
 Iteration #         26
  pAp =    1.3585573267582957E-006  rzold =    2.9553509267173238E-007  alpha =   0.21753597500145225     
 delta_qm =   0.339634E-04 delta_en =   0.896974E-03 tol =   0.100000E-04
 Iteration #         27
  pAp =    2.0808833629000161E-007  rzold =    1.1441409460227450E-007  alpha =   0.54983425136727360     
 delta_qm =   0.187039E-04 delta_en =   0.272034E-03 tol =   0.100000E-04
 Iteration #         28
  pAp =    1.6294426699669461E-007  rzold =    6.4688818895552610E-009  alpha =    3.9699966183446546E-002
 delta_qm =   0.184711E-04 delta_en =   0.265303E-03 tol =   0.100000E-04
 Iteration #         29
  pAp =   -6.2430879544718924E-010  rzold =   -6.5303376170555002E-009  alpha =    10.460108306463715     
 delta_qm =   0.728187E-04 delta_en =   0.412328E-02 tol =   0.100000E-04
 Iteration #         30
  pAp =    1.0131629839847145E-006  rzold =    2.7432772928181619E-007  alpha =   0.27076367141138563     
 delta_qm =   0.182414E-04 delta_en =   0.258745E-03 tol =   0.100000E-04
 Iteration #         31
  pAp =    4.2845211374940380E-008  rzold =    2.9529184561107445E-008  alpha =   0.68920618228945629     
 delta_qm =   0.920703E-05 delta_en =   0.659167E-04 tol =   0.100000E-04
 Iteration #         32
  pAp =    8.5189029607626369E-009  rzold =    6.7446693030711469E-009  alpha =   0.79172979597684545     
 delta_qm =   0.549530E-05 delta_en =   0.234822E-04 tol =   0.100000E-04
 Iteration #         33
  pAp =    3.2604207984861338E-009  rzold =    1.8257203115894190E-009  alpha =   0.55996462555910897     
 delta_qm =   0.389152E-05 delta_en =   0.117759E-04 tol =   0.100000E-04
 Iteration #         34
  pAp =    2.3536274085395516E-007  rzold =    9.2898083322154713E-009  alpha =    3.9470173989773032E-002
 delta_qm =   0.322553E-05 delta_en =   0.809016E-05 tol =   0.100000E-04
 Charges are converged, EXIT

%%%% DENSITY %%%%%%%%%%%%%%%%%%%%%%%%%%%%%%%%%%%%%%%%%%%%%%%%%%%%%%%%%%%%%%%%%%%
 density label              = velectrostatic                                                                  
 integral of density        =     -1447.716062    

%%%% CHARGES %%%%%%%%%%%%%%%%%%%%%%%%%%%%%%%%%%%%%%%%%%%%%%%%%%%%%%%%%%%%%%%%%%%
 total number of charges    =         99
 total charge               =     -1.0000000

%%%% DENSITY %%%%%%%%%%%%%%%%%%%%%%%%%%%%%%%%%%%%%%%%%%%%%%%%%%%%%%%%%%%%%%%%%%%
 density label              = vsoftcavity                                                                     
 integral of density        =      39.09355479    

%%%% DENSITY %%%%%%%%%%%%%%%%%%%%%%%%%%%%%%%%%%%%%%%%%%%%%%%%%%%%%%%%%%%%%%%%%%%
 density label              = dvtot                                                                           
 integral of density        =     -1408.622507    

%%%% ELECTRONS %%%%%%%%%%%%%%%%%%%%%%%%%%%%%%%%%%%%%%%%%%%%%%%%%%%%%%%%%%%%%%%%%
 number of electrons        =         89
 total electronic charge    =     89.0000000

%%%% ELECTRONS %%%%%%%%%%%%%%%%%%%%%%%%%%%%%%%%%%%%%%%%%%%%%%%%%%%%%%%%%%%%%%%%%
 number of electrons        =         89
 total electronic charge    =     89.0000000

%%%% BOUNDARY %%%%%%%%%%%%%%%%%%%%%%%%%%%%%%%%%%%%%%%%%%%%%%%%%%%%%%%%%%%%%%%%%%
 boundary label             = solvent              
 boundary mode              = full                 
 boundary is built as a function of a smooth density
 function type              =  2 
 using the modified SCCS function with parameters 
 rhomax                     =      0.0050000 
 rhomin                     =      0.0001000 
 volume of the QM region    =   1485.1234887 
 surface of the QM region   =    275.6941529 

%%%% DIELECTRIC %%%%%%%%%%%%%%%%%%%%%%%%%%%%%%%%%%%%%%%%%%%%%%%%%%%%%%%%%%%%%%%%%
 dielectric build on homogeneous background
 environment bulk permitt.  =    100.0000000 
 dielectric flags
 need gradient              =  F 
 need factor depend. sqrt   =  T 
 total dielectric charge    =      0.9879573

%%%% DENSITY %%%%%%%%%%%%%%%%%%%%%%%%%%%%%%%%%%%%%%%%%%%%%%%%%%%%%%%%%%%%%%%%%%%
 density label              = vreference                                                                      
 integral of density        =    -0.1778004834E-11

%%%% COMPUTE ELECTROSTATIC POTENTIAL %%%%%%%%%%%%%%%%%%%%%%%%%%%%%%%%%%%%%%%%%%%
 Warning: bad guess with residual norm =   0.945749E+04, reset to no guess
 Iteration #          1
  pAp =    1272.1325963115596       rzold =    1269.6651015883954       alpha =   0.99806034785185249     
 delta_qm =   0.110071E+00 delta_en =   0.942112E+04 tol =   0.100000E-04
 Iteration #          2
  pAp =    1866.8222969911512       rzold =    56.704446533699652       alpha =    3.0374849617498666E-002
 delta_qm =   0.109779E+00 delta_en =   0.937119E+04 tol =   0.100000E-04
 Iteration #          3
  pAp =    34.272320619212287       rzold =    4.1782385530142543       alpha =   0.12191291624040271     
 delta_qm =   0.120902E+00 delta_en =   0.113664E+05 tol =   0.100000E-04
 Iteration #          4
  pAp =   -3.3402215019605297       rzold =   0.83398279058048519       alpha =  -0.24967888808900318     
 delta_qm =   0.702397E-01 delta_en =   0.383638E+04 tol =   0.100000E-04
 Iteration #          5
  pAp =   0.96468029211183137       rzold =  -0.55448808147504491       alpha =  -0.57478947793282520     
 delta_qm =   0.164709E-01 delta_en =   0.210954E+03 tol =   0.100000E-04
 Iteration #          6
  pAp =   0.51780451548242679       rzold =   0.17666873307120712       alpha =   0.34118808891924945     
 delta_qm =   0.554804E-02 delta_en =   0.239351E+02 tol =   0.100000E-04
 Iteration #          7
  pAp =    3.9711521578196955E-002  rzold =    1.5372075358857424E-002  alpha =   0.38709358765283985     
 delta_qm =   0.169624E-02 delta_en =   0.223733E+01 tol =   0.100000E-04
 Iteration #          8
  pAp =    4.8798205103123158E-003  rzold =    2.0512769548247738E-003  alpha =   0.42035909937463850     
 delta_qm =   0.112109E-02 delta_en =   0.977323E+00 tol =   0.100000E-04
 Iteration #          9
  pAp =    1.1417526286854936E-003  rzold =    3.7998252274116915E-004  alpha =   0.33280634806038961     
 delta_qm =   0.112895E-02 delta_en =   0.991071E+00 tol =   0.100000E-04
 Iteration #         10
  pAp =    2.4008876261314487E-004  rzold =    1.3596406317846376E-004  alpha =   0.56630748435961875     
 delta_qm =   0.927970E-03 delta_en =   0.669613E+00 tol =   0.100000E-04
 Iteration #         11
  pAp =    9.0473138478495990E-005  rzold =    9.9623348603344004E-005  alpha =    1.1011373130050404     
 delta_qm =   0.520247E-03 delta_en =   0.210463E+00 tol =   0.100000E-04
 Iteration #         12
  pAp =    6.3838392068721946E-004  rzold =    1.0830813483979780E-004  alpha =   0.16965987289154186     
 delta_qm =   0.321921E-03 delta_en =   0.805850E-01 tol =   0.100000E-04
 Iteration #         13
  pAp =    3.9253855468951914E-003  rzold =    3.9634827322107731E-004  alpha =   0.10097053359117081     
 delta_qm =   0.535133E-03 delta_en =   0.222679E+00 tol =   0.100000E-04
 Iteration #         14
  pAp =    7.3528667906443373E-005  rzold =    4.2953351490172424E-005  alpha =   0.58417149002108315     
 delta_qm =   0.533725E-03 delta_en =   0.221509E+00 tol =   0.100000E-04
 Iteration #         15
  pAp =    2.3864474170650295E-005  rzold =    2.9532277545854871E-005  alpha =    1.2374996127999802     
 delta_qm =   0.586904E-03 delta_en =   0.267850E+00 tol =   0.100000E-04
 Iteration #         16
  pAp =    5.5445638006359368E-005  rzold =    6.9811017125864460E-005  alpha =    1.2590894367174104     
 delta_qm =   0.807007E-03 delta_en =   0.506420E+00 tol =   0.100000E-04
 Iteration #         17
[...]

%%%% CHARGES %%%%%%%%%%%%%%%%%%%%%%%%%%%%%%%%%%%%%%%%%%%%%%%%%%%%%%%%%%%%%%%%%%%
 total number of charges    =         99
 total charge               =     -1.0000000

%%%% DENSITY %%%%%%%%%%%%%%%%%%%%%%%%%%%%%%%%%%%%%%%%%%%%%%%%%%%%%%%%%%%%%%%%%%%
 density label              = vsoftcavity                                                                     
 integral of density        =      38.46858795    

%%%% DENSITY %%%%%%%%%%%%%%%%%%%%%%%%%%%%%%%%%%%%%%%%%%%%%%%%%%%%%%%%%%%%%%%%%%%
 density label              = dvtot                                                                           
 integral of density        =     -1385.034269    

%%%% ELECTRONS %%%%%%%%%%%%%%%%%%%%%%%%%%%%%%%%%%%%%%%%%%%%%%%%%%%%%%%%%%%%%%%%%
 number of electrons        =         89
 total electronic charge    =     89.0000000

%%%% ELECTRONS %%%%%%%%%%%%%%%%%%%%%%%%%%%%%%%%%%%%%%%%%%%%%%%%%%%%%%%%%%%%%%%%%
 number of electrons        =         89
 total electronic charge    =     89.0000000

%%%% BOUNDARY %%%%%%%%%%%%%%%%%%%%%%%%%%%%%%%%%%%%%%%%%%%%%%%%%%%%%%%%%%%%%%%%%%
 boundary label             = solvent              
 boundary mode              = full                 
 boundary is built as a function of a smooth density
 function type              =  2 
 using the modified SCCS function with parameters 
 rhomax                     =      0.0050000 
 rhomin                     =      0.0001000 
 volume of the QM region    =   1478.5644906 
 surface of the QM region   =    270.1123025 

%%%% DIELECTRIC %%%%%%%%%%%%%%%%%%%%%%%%%%%%%%%%%%%%%%%%%%%%%%%%%%%%%%%%%%%%%%%%%
 dielectric build on homogeneous background
 environment bulk permitt.  =    100.0000000 
 dielectric flags
 need gradient              =  F 
 need factor depend. sqrt   =  T 
 total dielectric charge    =      0.9881256

%%%% DENSITY %%%%%%%%%%%%%%%%%%%%%%%%%%%%%%%%%%%%%%%%%%%%%%%%%%%%%%%%%%%%%%%%%%%
 density label              = vreference                                                                      
 integral of density        =     0.2991794907E-10

%%%% COMPUTE ELECTROSTATIC POTENTIAL %%%%%%%%%%%%%%%%%%%%%%%%%%%%%%%%%%%%%%%%%%%
 Warning: bad guess with residual norm =   0.741378E+04, reset to no guess
 Iteration #          1
  pAp =    1272.9240285001588       rzold =    1270.1133093519547       alpha =   0.99779191916777954     
 delta_qm =   0.974299E-01 delta_en =   0.738144E+04 tol =   0.100000E-04
 Iteration #          2
  pAp =    2140.4795580683403       rzold =    65.710400036935226       alpha =    3.0698915011472983E-002
 delta_qm =   0.913991E-01 delta_en =   0.649591E+04 tol =   0.100000E-04
 Iteration #          3
  pAp =    39.421611504906849       rzold =    4.7820084159237179       alpha =   0.12130423474262325     
 delta_qm =   0.971867E-01 delta_en =   0.734463E+04 tol =   0.100000E-04
 Iteration #          4
  pAp =   -2.8927338683185924       rzold =   0.88257555573741953       alpha =  -0.30510084781854419     
 delta_qm =   0.534263E-01 delta_en =   0.221956E+04 tol =   0.100000E-04
 Iteration #          5
  pAp =    1.4649163990317253       rzold =  -0.68282776040056503       alpha =  -0.46612063381357316     
 delta_qm =   0.138364E-01 delta_en =   0.148868E+03 tol =   0.100000E-04
 Iteration #          6
  pAp =   0.69197338120916196       rzold =   0.22619692297061467       alpha =   0.32688674031847242     
 delta_qm =   0.437478E-02 delta_en =   0.148822E+02 tol =   0.100000E-04
 Iteration #          7
  pAp =    4.0471735039238857E-002  rzold =    1.5594885968483702E-002  alpha =   0.38532783319924085     
 delta_qm =   0.143518E-02 delta_en =   0.160166E+01 tol =   0.100000E-04
 Iteration #          8
  pAp =    4.5872744022851736E-003  rzold =    1.9695560983876530E-003  alpha =   0.42935214370575014     
 delta_qm =   0.924582E-03 delta_en =   0.664733E+00 tol =   0.100000E-04
 Iteration #          9
  pAp =    1.2095111236421221E-003  rzold =    4.1009750389582822E-004  alpha =   0.33906054758796128     
 delta_qm =   0.935987E-03 delta_en =   0.681234E+00 tol =   0.100000E-04
 Iteration #         10
  pAp =    2.7888947917877250E-004  rzold =    1.4602108092379127E-004  alpha =   0.52358045686689203     
 delta_qm =   0.811403E-03 delta_en =   0.511952E+00 tol =   0.100000E-04
 Iteration #         11
  pAp =    9.2844848824571443E-005  rzold =    9.7073306560617275E-005  alpha =    1.0455432669618043     
 delta_qm =   0.461744E-03 delta_en =   0.165790E+00 tol =   0.100000E-04
 Iteration #         12
  pAp =    1.6879609573083995E-004  rzold =    9.7073624796510126E-005  alpha =   0.57509401728877940     
 delta_qm =   0.332808E-03 delta_en =   0.861278E-01 tol =   0.100000E-04
 Iteration #         13
  pAp =    4.2150977360079353E-003  rzold =    1.6656312258357418E-004  alpha =    3.9515838781314705E-002
 delta_qm =   0.438036E-03 delta_en =   0.149202E+00 tol =   0.100000E-04
 Iteration #         14
  pAp =    1.0736018720802872E-004  rzold =    4.9325633569015217E-005  alpha =   0.45944064416950364     
 delta_qm =   0.431304E-03 delta_en =   0.144652E+00 tol =   0.100000E-04
 Iteration #         15
  pAp =    2.3873936916412369E-005  rzold =    2.6046618057959122E-005  alpha =    1.0910064037261120     
 delta_qm =   0.440915E-03 delta_en =   0.151170E+00 tol =   0.100000E-04
 Iteration #         16
  pAp =    7.3604796066443161E-005  rzold =    6.6233776730632911E-005  alpha =   0.89985680648912580     
 delta_qm =   0.527639E-03 delta_en =   0.216486E+00 tol =   0.100000E-04
 Iteration #         17
  pAp =    1.7265067058967477E-004  rzold =    1.1940767803689111E-004  alpha =   0.69161433100180603     
 delta_qm =   0.578351E-03 delta_en =   0.260100E+00 tol =   0.100000E-04
 Iteration #         18
  pAp =    2.7367256812734099E-004  rzold =    1.4518461890367291E-004  alpha =   0.53050482880738670     
 delta_qm =   0.351499E-03 delta_en =   0.960737E-01 tol =   0.100000E-04
 Iteration #         19
  pAp =    7.4597329960090952E-005  rzold =    3.8417606599759303E-005  alpha =   0.51499975428493827     
 delta_qm =   0.188605E-03 delta_en =   0.276608E-01 tol =   0.100000E-04
 Iteration #         20
  pAp =    1.3041175680898161E-005  rzold =    7.1308882249813362E-006  alpha =   0.54679795744383553     
 delta_qm =   0.129266E-03 delta_en =   0.129934E-01 tol =   0.100000E-04
 Iteration #         21
  pAp =    2.1028519678737629E-006  rzold =    1.8919417524142161E-006  alpha =   0.89970277571521007     
 delta_qm =   0.626009E-04 delta_en =   0.304732E-02 tol =   0.100000E-04
 Iteration #         22
  pAp =    1.8614752445050560E-006  rzold =    1.1088284185356715E-006  alpha =   0.59567185854813542     
 delta_qm =   0.363272E-04 delta_en =   0.102617E-02 tol =   0.100000E-04
 Iteration #         23
  pAp =    2.0669158207819334E-005  rzold =    9.1371112647058721E-007  alpha =    4.4206499233477338E-002
 delta_qm =   0.363813E-04 delta_en =   0.102923E-02 tol =   0.100000E-04
 Iteration #         24
  pAp =    1.4166652414685415E-006  rzold =    4.4573693926620560E-007  alpha =   0.31463815601499928     
 delta_qm =   0.267880E-04 delta_en =   0.558004E-03 tol =   0.100000E-04
 Iteration #         25
  pAp =    8.6086343405504053E-007  rzold =    1.7322441154614646E-007  alpha =   0.20122170915099075     
 delta_qm =   0.219813E-04 delta_en =   0.375718E-03 tol =   0.100000E-04
 Iteration #         26
  pAp =    1.0825998887247293E-007  rzold =    6.4164178867500256E-008  alpha =   0.59268599171097058     
 delta_qm =   0.105734E-04 delta_en =   0.869337E-04 tol =   0.100000E-04
 Iteration #         27
  pAp =    6.3959866267512568E-008  rzold =    3.1272442715922847E-008  alpha =   0.48893852568618024     
 delta_qm =   0.685106E-05 delta_en =   0.364982E-04 tol =   0.100000E-04
 Iteration #         28
  pAp =    1.5832017387149483E-008  rzold =    1.0654834983250369E-008  alpha =   0.67299288035766536     
 delta_qm =   0.473382E-05 delta_en =   0.174253E-04 tol =   0.100000E-04
 Iteration #         29
  pAp =    1.6430482150281840E-008  rzold =    1.4283266290274166E-009  alpha =    8.6931510345417087E-002
 delta_qm =   0.383419E-05 delta_en =   0.114315E-04 tol =   0.100000E-04
 Iteration #         30
  pAp =   -1.3684423660302137E-010  rzold =   -1.4606139895791964E-009  alpha =    10.673551373715272     
 delta_qm =   0.290863E-04 delta_en =   0.657861E-03 tol =   0.100000E-04
 Iteration #         31
  pAp =    3.4052684009370602E-006  rzold =    2.2142884495390551E-007  alpha =    6.5025372124256881E-002
 delta_qm =   0.211921E-05 delta_en =   0.349224E-05 tol =   0.100000E-04
 Charges are converged, EXIT

%%%% DENSITY %%%%%%%%%%%%%%%%%%%%%%%%%%%%%%%%%%%%%%%%%%%%%%%%%%%%%%%%%%%%%%%%%%%
 density label              = velectrostatic                                                                  
 integral of density        =     -1423.544977    

%%%% CHARGES %%%%%%%%%%%%%%%%%%%%%%%%%%%%%%%%%%%%%%%%%%%%%%%%%%%%%%%%%%%%%%%%%%%
 total number of charges    =         99
 total charge               =     -1.0000000

%%%% DENSITY %%%%%%%%%%%%%%%%%%%%%%%%%%%%%%%%%%%%%%%%%%%%%%%%%%%%%%%%%%%%%%%%%%%
 density label              = vsoftcavity                                                                     
 integral of density        =      38.47717311    

%%%% DENSITY %%%%%%%%%%%%%%%%%%%%%%%%%%%%%%%%%%%%%%%%%%%%%%%%%%%%%%%%%%%%%%%%%%%
 density label              = dvtot                                                                           
 integral of density        =     -1385.067804    

%%%% ELECTRONS %%%%%%%%%%%%%%%%%%%%%%%%%%%%%%%%%%%%%%%%%%%%%%%%%%%%%%%%%%%%%%%%%
 number of electrons        =         89
 total electronic charge    =     89.0000000

%%%% ELECTRONS %%%%%%%%%%%%%%%%%%%%%%%%%%%%%%%%%%%%%%%%%%%%%%%%%%%%%%%%%%%%%%%%%
 number of electrons        =         89
 total electronic charge    =     89.0000000

%%%% BOUNDARY %%%%%%%%%%%%%%%%%%%%%%%%%%%%%%%%%%%%%%%%%%%%%%%%%%%%%%%%%%%%%%%%%%
 boundary label             = solvent              
 boundary mode              = full                 
 boundary is built as a function of a smooth density
 function type              =  2 
 using the modified SCCS function with parameters 
 rhomax                     =      0.0050000 
 rhomin                     =      0.0001000 
 volume of the QM region    =   1478.5721964 
 surface of the QM region   =    270.1196853 

%%%% DIELECTRIC %%%%%%%%%%%%%%%%%%%%%%%%%%%%%%%%%%%%%%%%%%%%%%%%%%%%%%%%%%%%%%%%%
 dielectric build on homogeneous background
 environment bulk permitt.  =    100.0000000 
 dielectric flags
 need gradient              =  F 
 need factor depend. sqrt   =  T 
 total dielectric charge    =      0.9881408

%%%% DENSITY %%%%%%%%%%%%%%%%%%%%%%%%%%%%%%%%%%%%%%%%%%%%%%%%%%%%%%%%%%%%%%%%%%%
 density label              = vreference                                                                      
 integral of density        =    -0.3292741389E-10

%%%% COMPUTE ELECTROSTATIC POTENTIAL %%%%%%%%%%%%%%%%%%%%%%%%%%%%%%%%%%%%%%%%%%%
 Warning: bad guess with residual norm =   0.741830E+04, reset to no guess
 Iteration #          1
  pAp =    1272.9252752405328       rzold =    1270.1130764845741       alpha =   0.99779075896232228     
 delta_qm =   0.974595E-01 delta_en =   0.738592E+04 tol =   0.100000E-04
 Iteration #          2
  pAp =    2142.3354829707127       rzold =    65.761839607613609       alpha =    3.0696331237731089E-002
 delta_qm =   0.914166E-01 delta_en =   0.649839E+04 tol =   0.100000E-04
 Iteration #          3
  pAp =    39.414508357425312       rzold =    4.7816369102253429       alpha =   0.12131667016784008     
 delta_qm =   0.972077E-01 delta_en =   0.734780E+04 tol =   0.100000E-04
 Iteration #          4
  pAp =   -2.8928459562643192       rzold =   0.88268263392991742       alpha =  -0.30512604102493274     
 delta_qm =   0.534315E-01 delta_en =   0.221999E+04 tol =   0.100000E-04
 Iteration #          5
  pAp =    1.4655021206907839       rzold =  -0.68283830555037639       alpha =  -0.46594153356019130     
 delta_qm =   0.138517E-01 delta_en =   0.149197E+03 tol =   0.100000E-04
 Iteration #          6
  pAp =   0.69338411487523399       rzold =   0.22668472332094483       alpha =   0.32692517532181131     
 delta_qm =   0.437690E-02 delta_en =   0.148967E+02 tol =   0.100000E-04
 Iteration #          7
  pAp =    4.0498628844785521E-002  rzold =    1.5605153176544656E-002  alpha =   0.38532546956966734     
 delta_qm =   0.143582E-02 delta_en =   0.160309E+01 tol =   0.100000E-04
 Iteration #          8
  pAp =    4.5938244572612452E-003  rzold =    1.9715667411305156E-003  alpha =   0.42917764043294071     
 delta_qm =   0.925043E-03 delta_en =   0.665396E+00 tol =   0.100000E-04
 Iteration #          9
  pAp =    1.2116085561323317E-003  rzold =    4.1083960611197325E-004  alpha =   0.33908608851644773     
 delta_qm =   0.936707E-03 delta_en =   0.682282E+00 tol =   0.100000E-04
 Iteration #         10
  pAp =    2.7915787682037204E-004  rzold =    1.4618865871215007E-004  alpha =   0.52367735554249528     
 delta_qm =   0.811925E-03 delta_en =   0.512611E+00 tol =   0.100000E-04
 Iteration #         11
  pAp =    9.3255580774021174E-005  rzold =    9.7267812224150556E-005  alpha =    1.0430240358467329     
 delta_qm =   0.476864E-03 delta_en =   0.176825E+00 tol =   0.100000E-04
 Iteration #         12
  pAp =    3.3978485615175305E-004  rzold =    1.0223087004455635E-004  alpha =   0.30086941249347060     
 delta_qm =   0.225580E-03 delta_en =   0.395694E-01 tol =   0.100000E-04
 Iteration #         13
  pAp =    8.5295958032289305E-003  rzold =    5.1997212880079745E-004  alpha =    6.0960934233713494E-002
 delta_qm =   0.422529E-03 delta_en =   0.138825E+00 tol =   0.100000E-04
 Iteration #         14
  pAp =    7.1396564860103914E-005  rzold =    4.0543543505261231E-005  alpha =   0.56786406439445924     
 delta_qm =   0.432489E-03 delta_en =   0.145447E+00 tol =   0.100000E-04
 Iteration #         15
  pAp =    2.4334842717589370E-005  rzold =    2.6182119881285123E-005  alpha =    1.0759107911702479     
 delta_qm =   0.441311E-03 delta_en =   0.151442E+00 tol =   0.100000E-04
 Iteration #         16
  pAp =    7.3879653775377302E-005  rzold =    6.6211395862886667E-005  alpha =   0.89620609300897502     
 delta_qm =   0.526384E-03 delta_en =   0.215458E+00 tol =   0.100000E-04
 Iteration #         17
  pAp =    1.7226741901311564E-004  rzold =    1.1946316499832332E-004  alpha =   0.69347509635137650     
 delta_qm =   0.580307E-03 delta_en =   0.261862E+00 tol =   0.100000E-04
 Iteration #         18
  pAp =    2.6764231552016730E-004  rzold =    1.4453183055087822E-004  alpha =   0.54001860755829367     
 delta_qm =   0.352571E-03 delta_en =   0.966604E-01 tol =   0.100000E-04
 Iteration #         19
  pAp =    7.4540198674976523E-005  rzold =    3.8477704272438942E-005  alpha =   0.51620072063687805     
 delta_qm =   0.188888E-03 delta_en =   0.277437E-01 tol =   0.100000E-04
 Iteration #         20
  pAp =    1.3057786859022345E-005  rzold =    7.1448280253566857E-006  alpha =   0.54716990731242710     
 delta_qm =   0.129423E-03 delta_en =   0.130250E-01 tol =   0.100000E-04
 Iteration #         21
  pAp =    2.1109021489784049E-006  rzold =    1.8971850857191782E-006  alpha =   0.89875558023252877     
 delta_qm =   0.626052E-04 delta_en =   0.304773E-02 tol =   0.100000E-04
 Iteration #         22
  pAp =    3.4517451364882609E-006  rzold =    1.1552822529618105E-006  alpha =   0.33469512008559604     
 delta_qm =   0.482641E-04 delta_en =   0.181136E-02 tol =   0.100000E-04
 Iteration #         23
  pAp =    1.0918270031988952E-004  rzold =    5.8587808934935413E-006  alpha =    5.3660340661369987E-002
 delta_qm =   0.360792E-04 delta_en =   0.101221E-02 tol =   0.100000E-04
 Iteration #         24
  pAp =    5.7153395848936513E-007  rzold =    3.0058443270939395E-007  alpha =   0.52592576214347042     
 delta_qm =   0.258466E-04 delta_en =   0.519474E-03 tol =   0.100000E-04
 Iteration #         25
  pAp =    2.0009670757292384E-007  rzold =    8.0723931815908143E-008  alpha =   0.40342458801571673     
 delta_qm =   0.178477E-04 delta_en =   0.247696E-03 tol =   0.100000E-04
 Iteration #         26
  pAp =    3.1909301149886561E-007  rzold =    9.1277321255411764E-008  alpha =   0.28605239841091368     
 delta_qm =   0.106113E-04 delta_en =   0.875572E-04 tol =   0.100000E-04
 Iteration #         27
  pAp =    7.5087082432702965E-008  rzold =    3.3066092069146478E-008  alpha =   0.44036991447606277     
 delta_qm =   0.576374E-05 delta_en =   0.258325E-04 tol =   0.100000E-04
 Iteration #         28
  pAp =    1.6079899122443400E-008  rzold =    9.8005708332707511E-009  alpha =   0.60949205953609975     
 delta_qm =   0.279581E-05 delta_en =   0.607815E-05 tol =   0.100000E-04
 Charges are converged, EXIT

%%%% DENSITY %%%%%%%%%%%%%%%%%%%%%%%%%%%%%%%%%%%%%%%%%%%%%%%%%%%%%%%%%%%%%%%%%%%
 density label              = velectrostatic                                                                  
 integral of density        =     -1423.542101    

%%%% CHARGES %%%%%%%%%%%%%%%%%%%%%%%%%%%%%%%%%%%%%%%%%%%%%%%%%%%%%%%%%%%%%%%%%%%
 total number of charges    =         99
 total charge               =     -1.0000000

%%%% DENSITY %%%%%%%%%%%%%%%%%%%%%%%%%%%%%%%%%%%%%%%%%%%%%%%%%%%%%%%%%%%%%%%%%%%
 density label              = vsoftcavity                                                                     
 integral of density        =      38.48317833    

%%%% DENSITY %%%%%%%%%%%%%%%%%%%%%%%%%%%%%%%%%%%%%%%%%%%%%%%%%%%%%%%%%%%%%%%%%%%
 density label              = dvtot                                                                           
 integral of density        =     -1385.058923    

%%%% ELECTRONS %%%%%%%%%%%%%%%%%%%%%%%%%%%%%%%%%%%%%%%%%%%%%%%%%%%%%%%%%%%%%%%%%
 number of electrons        =         89
 total electronic charge    =     89.0000000

%%%% ELECTRONS %%%%%%%%%%%%%%%%%%%%%%%%%%%%%%%%%%%%%%%%%%%%%%%%%%%%%%%%%%%%%%%%%
 number of electrons        =         89
 total electronic charge    =     89.0000000

%%%% BOUNDARY %%%%%%%%%%%%%%%%%%%%%%%%%%%%%%%%%%%%%%%%%%%%%%%%%%%%%%%%%%%%%%%%%%
 boundary label             = solvent              
 boundary mode              = full                 
 boundary is built as a function of a smooth density
 function type              =  2 
 using the modified SCCS function with parameters 
 rhomax                     =      0.0050000 
 rhomin                     =      0.0001000 
 volume of the QM region    =   1478.5721964 
 surface of the QM region   =    270.1196853 

%%%% DIELECTRIC %%%%%%%%%%%%%%%%%%%%%%%%%%%%%%%%%%%%%%%%%%%%%%%%%%%%%%%%%%%%%%%%%
 dielectric build on homogeneous background
 environment bulk permitt.  =    100.0000000 
 dielectric flags
 need gradient              =  F 
 need factor depend. sqrt   =  T 
 total dielectric charge    =      0.9881125

%%%% DENSITY %%%%%%%%%%%%%%%%%%%%%%%%%%%%%%%%%%%%%%%%%%%%%%%%%%%%%%%%%%%%%%%%%%%
 density label              = dvtot                                                                           
 integral of density        =     -1385.058923    

%%%% DENSITY %%%%%%%%%%%%%%%%%%%%%%%%%%%%%%%%%%%%%%%%%%%%%%%%%%%%%%%%%%%%%%%%%%%
 density label              = vreference                                                                      
 integral of density        =    -0.3292741389E-10

%%%% DENSITY %%%%%%%%%%%%%%%%%%%%%%%%%%%%%%%%%%%%%%%%%%%%%%%%%%%%%%%%%%%%%%%%%%%
 density label              = velectrostatic                                                                  
 integral of density        =     -1423.542101    

%%%% CHARGES %%%%%%%%%%%%%%%%%%%%%%%%%%%%%%%%%%%%%%%%%%%%%%%%%%%%%%%%%%%%%%%%%%%
 total number of charges    =         99
 total charge               =     -1.0000000

%%%% DENSITY %%%%%%%%%%%%%%%%%%%%%%%%%%%%%%%%%%%%%%%%%%%%%%%%%%%%%%%%%%%%%%%%%%%
 density label              = vsoftcavity                                                                     
 integral of density        =      38.48317833    
