
     Program PWSCF v.6.1 (svn rev. 13369) starts on 11Oct2017 at 15:16:37 

     This program is part of the open-source Quantum ESPRESSO suite
     for quantum simulation of materials; please cite
         "P. Giannozzi et al., J. Phys.:Condens. Matter 21 395502 (2009);
          URL http://www.quantum-espresso.org", 
     in publications or presentations arising from this work. More details at
     http://www.quantum-espresso.org/quote

     Serial version
     Reading input from charged.in

     Current dimensions of program PWSCF are:
     Max number of different atomic species (ntypx) = 10
     Max number of k-points (npk) =  40000
     Max angular momentum in pseudopotentials (lmaxx) =  3
               file C.pbe-rrkjus.UPF: wavefunction(s)  2S 2P renormalized
               file O.pbe-rrkjus.UPF: wavefunction(s)  2S renormalized

     gamma-point specific algorithms are used

     G-vector sticks info
     --------------------
     sticks:   dense  smooth     PW     G-vecs:    dense   smooth      PW
     Sum        2205    1099    269               330909   116965   14571



     bravais-lattice index     =            8
     lattice parameter (alat)  =      10.6881  a.u.
     unit-cell volume          =    4181.1215 (a.u.)^3
     number of atoms/cell      =           10
     number of atomic types    =            3
     number of electrons       =        89.00
     number of Kohn-Sham states=           80
     kinetic-energy cutoff     =      35.0000  Ry
     charge density cutoff     =     280.0000  Ry
     convergence threshold     =      5.0E-02
     mixing beta               =       0.7000
     number of iterations used =            8  plain     mixing
     Exchange-correlation      = PBE ( 1  4  3  4 0 0)


     Environ Module
     ==============

     Plese cite
         O. Andreussi, I. Dabo and N. Marzari, J. Chem. Phys. 136, 064102 (2012)         
     in publications or presentations arising from this work.

     compensation onset threshold      =               0.1000E+03 
     static permittivity               =                   100.00 
     epsilon calculation mode          =               electronic 

     Electrostatic Setup
     -------------------
     electrostatic problem to solve    = generalized              
     numerical solver adopted          = cg                       
     type of auxiliary density adopted = none                     
     type of core tool for poisson     = fft                      
     type of core tool for s(r) deriv  = analytic                 



     celldm(1)=  10.688100  celldm(2)=   0.866025  celldm(3)=   3.954220
     celldm(4)=   0.000000  celldm(5)=   0.000000  celldm(6)=   0.000000

     crystal axes: (cart. coord. in units of alat)
               a(1) = (   1.000000   0.000000   0.000000 )  
               a(2) = (   0.000000   0.866025   0.000000 )  
               a(3) = (   0.000000   0.000000   3.954220 )  

     reciprocal axes: (cart. coord. in units 2 pi/alat)
               b(1) = (  1.000000  0.000000  0.000000 )  
               b(2) = (  0.000000  1.154701  0.000000 )  
               b(3) = (  0.000000  0.000000  0.252894 )  


     PseudoPot. # 1 for C  read from file:
     /Users/oliviero/PWSCF/espresso-6.1-Environ-1.0/Environ/tests/../..//pseudo/C.pbe-rrkjus.UPF
     MD5 check sum: 00fb224312de0c5b6853bd333518df6f
     Pseudo is Ultrasoft, Zval =  4.0
     Generated by new atomic code, or converted to UPF format
     Using radial grid of  627 points,  4 beta functions with: 
                l(1) =   0
                l(2) =   0
                l(3) =   1
                l(4) =   1
     Q(r) pseudized with 0 coefficients 


     PseudoPot. # 2 for O  read from file:
     /Users/oliviero/PWSCF/espresso-6.1-Environ-1.0/Environ/tests/../..//pseudo/O.pbe-rrkjus.UPF
     MD5 check sum: 390ba29e75625707450f3bd3f0eb6be9
     Pseudo is Ultrasoft, Zval =  6.0
     Generated by new atomic code, or converted to UPF format
     Using radial grid of 1269 points,  4 beta functions with: 
                l(1) =   0
                l(2) =   0
                l(3) =   1
                l(4) =   1
     Q(r) pseudized with 0 coefficients 


     PseudoPot. # 3 for Pt read from file:
     /Users/oliviero/PWSCF/espresso-6.1-Environ-1.0/Environ/tests/../..//pseudo/Pt.pbe-n-rrkjus_psl.0.1.UPF
     MD5 check sum: df5be8f5ed4f66d4aed38ca70ec8d507
     Pseudo is Ultrasoft + core correction, Zval = 10.0
     Generated using "atomic" code by A. Dal Corso  v.5.0.2 svn rev. 9415
     Using radial grid of 1277 points,  6 beta functions with: 
                l(1) =   0
                l(2) =   0
                l(3) =   1
                l(4) =   1
                l(5) =   2
                l(6) =   2
     Q(r) pseudized with 0 coefficients 


     atomic species   valence    mass     pseudopotential
        C              4.00     1.00000     C ( 1.00)
        O              6.00     1.00000     O ( 1.00)
        Pt            10.00     1.00000     Pt( 1.00)

     No symmetry found



   Cartesian axes

     site n.     atom                  positions (alat units)
         1           C   tau(   1) = (   0.4991611   0.4347567   1.2070461  )
         2           O   tau(   2) = (   0.4991542   0.4322212   1.4109013  )
         3           Pt  tau(   3) = (   0.7542339   0.0091745   0.8413229  )
         4           Pt  tau(   4) = (   0.2441023   0.0091745   0.8413226  )
         5           Pt  tau(   5) = (   0.0000034   0.4416918   0.8391348  )
         6           Pt  tau(   6) = (   0.4991682   0.4417635   0.8776299  )
         7           Pt  tau(   7) = (   0.0000038   0.7300598   0.4308181  )
         8           Pt  tau(   8) = (   0.4991683   0.7202168   0.4447460  )
         9           Pt  tau(   9) = (   0.2524172   0.2949237   0.4386572  )
        10           Pt  tau(  10) = (   0.7459196   0.2949237   0.4386575  )

     number of k points=     1  Marzari-Vanderbilt smearing, width (Ry)=  0.0300
                       cart. coord. in units 2pi/alat
        k(    1) = (   0.0000000   0.0000000   0.0000000), wk =   2.0000000

     Dense  grid:   165455 G-vectors     FFT dimensions: (  60,  50, 225)

     Smooth grid:    58483 G-vectors     FFT dimensions: (  45,  36, 160)

     Estimated max dynamical RAM per process >     216.67MB

     Initial potential from superposition of free atoms
     Check: negative starting charge=   -0.001782

     starting charge   89.99859, renormalised to   89.00000

     negative rho (up, down):  1.762E-03 0.000E+00
     Starting wfc are   80 randomized atomic wfcs

     total cpu time spent up to now is       20.3 secs

     Self-consistent Calculation

     iteration #  1     ecut=    35.00 Ry     beta=0.70
     Davidson diagonalization with overlap
     ethr =  1.00E-02,  avg # of iterations =  5.0

     negative rho (up, down):  1.526E-03 0.000E+00

     add environment contribution to local potential
     polarization accuracy = 5.6E-05, # of iterations =  24

     total cpu time spent up to now is       39.8 secs

     total energy              =    -622.68843633 Ry
     Harris-Foulkes estimate   =    -624.21108732 Ry
     estimated scf accuracy    <       1.86594048 Ry
     electrostatic embedding   =       0.03381190 Ry
     correction to one-el term =       0.00000000 Ry

     iteration #  2     ecut=    35.00 Ry     beta=0.70
     Davidson diagonalization with overlap
     ethr =  2.10E-03,  avg # of iterations =  8.0

     negative rho (up, down):  2.179E-02 0.000E+00

     add environment contribution to local potential
     polarization accuracy = 5.3E-05, # of iterations =  37

     total cpu time spent up to now is       66.6 secs

     total energy              =    -618.03133742 Ry
     Harris-Foulkes estimate   =    -636.08556641 Ry
     estimated scf accuracy    <      52.50863153 Ry
     electrostatic embedding   =       0.19167520 Ry
     correction to one-el term =       8.42642798 Ry

     iteration #  3     ecut=    35.00 Ry     beta=0.70
     Davidson diagonalization with overlap
     ethr =  2.10E-03,  avg # of iterations =  3.0

     negative rho (up, down):  7.173E-03 0.000E+00

     add environment contribution to local potential
     polarization accuracy = 9.2E-05, # of iterations =  26

     total cpu time spent up to now is       86.8 secs

     total energy              =    -623.28105167 Ry
     Harris-Foulkes estimate   =    -632.98780320 Ry
     estimated scf accuracy    <       2.93379877 Ry
     electrostatic embedding   =       0.21419292 Ry
     correction to one-el term =       8.89023388 Ry

     iteration #  4     ecut=    35.00 Ry     beta=0.70
     Davidson diagonalization with overlap
     ethr =  2.10E-03,  avg # of iterations =  2.0

     negative rho (up, down):  9.893E-03 0.000E+00

     add environment contribution to local potential
     polarization accuracy = 6.4E-05, # of iterations =  31

     total cpu time spent up to now is      109.1 secs

     total energy              =    -623.59645835 Ry
     Harris-Foulkes estimate   =    -634.36429930 Ry
     estimated scf accuracy    <       1.93012470 Ry
     electrostatic embedding   =       0.21893153 Ry
     correction to one-el term =      10.22432055 Ry

     iteration #  5     ecut=    35.00 Ry     beta=0.70
     Davidson diagonalization with overlap
     ethr =  2.10E-03,  avg # of iterations =  1.0

     negative rho (up, down):  9.866E-03 0.000E+00

     add environment contribution to local potential
     polarization accuracy = 6.8E-05, # of iterations =  35

     total cpu time spent up to now is      132.6 secs

     total energy              =    -623.68202757 Ry
     Harris-Foulkes estimate   =    -633.73342704 Ry
     estimated scf accuracy    <       0.50220893 Ry
     electrostatic embedding   =       0.21587284 Ry
     correction to one-el term =       9.78676428 Ry

     iteration #  6     ecut=    35.00 Ry     beta=0.70
     Davidson diagonalization with overlap
     ethr =  5.64E-04,  avg # of iterations =  1.0

     negative rho (up, down):  7.496E-03 0.000E+00

     add environment contribution to local potential
     polarization accuracy = 3.4E-05, # of iterations =  29

     total cpu time spent up to now is      153.0 secs

     total energy              =    -623.67687043 Ry
     Harris-Foulkes estimate   =    -633.00877509 Ry
     estimated scf accuracy    <       0.58983475 Ry
     electrostatic embedding   =       0.21185524 Ry
     correction to one-el term =       9.07942511 Ry

     iteration #  7     ecut=    35.00 Ry     beta=0.70
     Davidson diagonalization with overlap
     ethr =  5.64E-04,  avg # of iterations =  1.0

     negative rho (up, down):  3.971E-03 0.000E+00

     add environment contribution to local potential
     polarization accuracy = 6.0E-05, # of iterations =  28

     total cpu time spent up to now is      172.8 secs

     total energy              =    -623.68578761 Ry
     Harris-Foulkes estimate   =    -632.67927880 Ry
     estimated scf accuracy    <       0.06390832 Ry
     electrostatic embedding   =       0.20868250 Ry
     correction to one-el term =       8.77050720 Ry

     iteration #  8     ecut=    35.00 Ry     beta=0.70
     Davidson diagonalization with overlap
     ethr =  7.18E-05,  avg # of iterations = 11.0

     negative rho (up, down):  2.814E-03 0.000E+00

     add environment contribution to local potential
     polarization accuracy = 8.6E-05, # of iterations =  27

     total cpu time spent up to now is      193.8 secs

     total energy              =    -623.69007562 Ry
     Harris-Foulkes estimate   =    -632.22137791 Ry
     estimated scf accuracy    <       0.07199888 Ry
     electrostatic embedding   =       0.20442087 Ry
     correction to one-el term =       8.31921741 Ry

     iteration #  9     ecut=    35.00 Ry     beta=0.70
     Davidson diagonalization with overlap
     ethr =  7.18E-05,  avg # of iterations =  1.0

     negative rho (up, down):  3.344E-03 0.000E+00

     add environment contribution to local potential
     polarization accuracy = 7.0E-05, # of iterations =  27

     total cpu time spent up to now is      213.2 secs

     total energy              =    -623.69185224 Ry
     Harris-Foulkes estimate   =    -631.79999947 Ry
     estimated scf accuracy    <       0.07064195 Ry
     electrostatic embedding   =       0.20149196 Ry
     correction to one-el term =       7.89844285 Ry

     iteration # 10     ecut=    35.00 Ry     beta=0.70
     Davidson diagonalization with overlap
     ethr =  7.18E-05,  avg # of iterations =  1.0

     negative rho (up, down):  2.092E-03 0.000E+00

     total cpu time spent up to now is      218.4 secs

     End of self-consistent calculation

          k = 0.0000 0.0000 0.0000 (  7286 PWs)   bands (ev):

   -29.5400 -16.0416 -14.3801 -13.1868 -12.9188 -12.3823 -12.3730 -12.2057
   -12.0344 -11.1959 -11.0578 -10.9473 -10.7239 -10.6775 -10.6030 -10.4688
    -9.7892  -9.7496  -9.6946  -9.4945  -9.4442  -9.3962  -9.3526  -9.3200
    -9.3018  -9.1245  -9.1010  -9.0133  -8.9030  -8.6647  -8.5628  -7.8094
    -7.6806  -7.4188  -7.1692  -7.1386  -7.0729  -6.9051  -6.7610  -6.6282
    -6.4459  -6.4353  -6.2363  -6.1900  -6.1467  -5.9774  -5.8422  -4.7629
    -4.4387  -4.3714  -3.7833  -3.1124  -2.9688  -2.0040  -1.6818  -1.5972
    -0.2501  -0.0531   0.0527   0.3511   0.8588   1.1916   1.4090   1.4342
     2.2766   2.5111   2.7060   2.8452   2.9782   3.3213   4.1792   4.5819
     4.6754   4.7380   4.9716   5.3155   5.4053   5.4750   5.5798   5.6590

     the Fermi energy is    -6.0625 ev

!    total energy              =    -623.69499457 Ry
     Harris-Foulkes estimate   =    -631.82900771 Ry
     estimated scf accuracy    <       0.00221613 Ry

     The total energy is the sum of the following terms:

     one-electron contribution =   -3947.13911159 Ry
     hartree contribution      =    2004.84996900 Ry
     xc contribution           =    -262.74114448 Ry
     ewald contribution        =    1573.20467954 Ry
     smearing contrib. (-TS)   =      -0.00135293 Ry
     electrostatic embedding   =       0.20139289 Ry
     correction to one-el term =       7.93057301 Ry

     convergence has been achieved in  10 iterations

     negative rho (up, down):  2.092E-03 0.000E+00

     Forces acting on atoms (cartesian axes, Ry/au):

     atom    1 type  1   force =    -0.00008827   -0.00439043    0.17502646
     atom    2 type  2   force =     0.00005205    0.00134080    0.22453851
     atom    3 type  3   force =    -0.00460756    0.01195781    0.10192646
     atom    4 type  3   force =     0.00552680    0.01191295    0.10374440
     atom    5 type  3   force =    -0.00270765    0.01149492    0.06936824
     atom    6 type  3   force =     0.00168800    0.00994351    0.14523304
     atom    7 type  3   force =    -0.00232922   -0.01039809   -0.21651248
     atom    8 type  3   force =     0.00142340   -0.02084493   -0.18727276
     atom    9 type  3   force =     0.02313661   -0.00553988   -0.20856652
     atom   10 type  3   force =    -0.02209416   -0.00547666   -0.20748535

     Total force =     0.546663     Total SCF correction =     0.185608
     SCF correction compared to forces is large: reduce conv_thr to get better values

     Writing output data file pwscf.save

     init_run     :     19.24s CPU     19.85s WALL (       1 calls)
     electrons    :    192.86s CPU    198.22s WALL (       1 calls)
     forces       :      7.59s CPU      7.84s WALL (       1 calls)

     Called by init_run:
     wfcinit      :      0.69s CPU      0.62s WALL (       1 calls)
     potinit      :      3.24s CPU      3.34s WALL (       1 calls)

     Called by electrons:
     c_bands      :     19.53s CPU     16.07s WALL (      10 calls)
     sum_band     :     17.56s CPU     17.58s WALL (      10 calls)
     v_of_rho     :      6.07s CPU      6.62s WALL (      11 calls)
     newd         :      9.69s CPU     12.20s WALL (      11 calls)
     mix_rho      :      0.59s CPU      0.77s WALL (      10 calls)

     Called by c_bands:
     init_us_2    :      0.20s CPU      0.23s WALL (      21 calls)
     regterg      :     18.30s CPU     14.80s WALL (      10 calls)

     Called by sum_band:
     sum_band:bec :      0.00s CPU      0.00s WALL (      10 calls)
     addusdens    :     13.87s CPU     13.86s WALL (      10 calls)

     Called by *egterg:
     h_psi        :     12.89s CPU     11.81s WALL (      45 calls)
     s_psi        :      1.34s CPU      0.39s WALL (      45 calls)
     g_psi        :      0.13s CPU      0.13s WALL (      34 calls)
     rdiaghg      :      0.63s CPU      0.62s WALL (      44 calls)

     Called by h_psi:
     h_psi:pot    :     12.78s CPU     11.69s WALL (      45 calls)
     h_psi:calbec :      0.72s CPU      0.38s WALL (      45 calls)
     vloc_psi     :     10.66s CPU     10.91s WALL (      45 calls)
     add_vuspsi   :      1.39s CPU      0.40s WALL (      45 calls)

     General routines
     calbec       :      1.11s CPU      0.58s WALL (      59 calls)
     fft          :     16.58s CPU     16.90s WALL (     846 calls)
     ffts         :      0.14s CPU      0.15s WALL (      21 calls)
     fftw         :     10.18s CPU     10.44s WALL (    2412 calls)
     interpolate  :      0.68s CPU      0.77s WALL (      21 calls)
     davcio       :      0.03s CPU      0.06s WALL (       1 calls)


     Environ routines
     calc_eelect  :      0.02s CPU      0.02s WALL (      20 calls)
     calc_velect  :    135.04s CPU    140.33s WALL (      18 calls)
     dielectric   :      0.55s CPU      0.67s WALL (      11 calls)
     calc_felect  :      0.85s CPU      0.88s WALL (       1 calls)

     PWSCF        :  3m40.18s CPU     3m46.57s WALL


   This run was terminated on:  15:20:23  11Oct2017            

=------------------------------------------------------------------------------=
   JOB DONE.
=------------------------------------------------------------------------------=

%%%% IONS %%%%%%%%%%%%%%%%%%%%%%%%%%%%%%%%%%%%%%%%%%%%%%%%%%%%%%%%%%%%%%%%%%%%%%
 number of ions             =         10
 ionic center of charge     =      0.3882415     0.3750182     0.7201831
 total ionic charge         =    -90.0000000
 ionic dipole               =      0.0000000     0.0000000     0.0000000
 ionic quadrupole (pc)      =   -730.5101255  -614.6110457  -876.7220256
 ionic quadrupole (gauss)   =   -741.7601255  -625.8610457  -887.9720256
 ion   1 type =  1 coordinates =      5.3350841     4.6467234    12.9010299
 ion   2 type =  2 coordinates =      5.3350096     4.6196233    15.0798543
 ion   3 type =  3 coordinates =      8.0613271     0.0980580     8.9921429
 ion   4 type =  3 coordinates =      2.6089894     0.0980583     8.9921406
 ion   5 type =  3 coordinates =      0.0000366     4.7208463     8.9687569
 ion   6 type =  3 coordinates =      5.3351596     4.7216127     9.3801964
 ion   7 type =  3 coordinates =      0.0000411     7.8029520     4.6046265
 ion   8 type =  3 coordinates =      5.3351612     7.6977491     4.7534894
 ion   9 type =  3 coordinates =      2.6978606     3.1521739     4.6884123
 ion  10 type =  3 coordinates =      7.9724637     3.1521745     4.6884152

%%%% SYSTEM %%%%%%%%%%%%%%%%%%%%%%%%%%%%%%%%%%%%%%%%%%%%%%%%%%%%%%%%%%%%%%%%%%%%
 system is built from all present ionic types
 system defined dimension   =  0 
 system defined axis        =  3 
 system center              =      0.3882415     0.3750182     0.7201831 
 system width               =      1.5145225 

%%%% ELECTRONS %%%%%%%%%%%%%%%%%%%%%%%%%%%%%%%%%%%%%%%%%%%%%%%%%%%%%%%%%%%%%%%%%
 number of electrons        =         89
 total electronic charge    =     89.0000000
 number of spin components  =  1

%%%% BOUNDARY %%%%%%%%%%%%%%%%%%%%%%%%%%%%%%%%%%%%%%%%%%%%%%%%%%%%%%%%%%%%%%%%%%
 boundary mode              = electronic           
 boundary is built as a function of a smooth density
 function type              =  2 
 using the modified SCCS function with parameters 
 rhomax                     =      0.0050000 
 rhomin                     =      0.0001000 

%%%% DIELECTRIC %%%%%%%%%%%%%%%%%%%%%%%%%%%%%%%%%%%%%%%%%%%%%%%%%%%%%%%%%%%%%%%%%
 dielectric build on homogeneous background
 environment bulk permitt.  =    100.0000000 
 dielectric flags
 need gradient              =  F 
 need factor depend. sqrt   =  T 
 need gradient of logarithm =  T 

%%%% COMPUTE ELECTROSTATIC POTENTIAL %%%%%%%%%%%%%%%%%%%%%%%%%%%%%%%%%%%%%%%%%%%
 Iteration #          1
  pAp =  1295.4915432974053  rzold =  1273.5466545986205  alpha =  0.9830605697024246
 delta_qm =   0.202957E+00 delta_en =   0.278043E+05 tol =   0.100000E-03
 Iteration #          2
  pAp =  21528.891963493526  rzold =  667.2910952602846  alpha =  0.030995143474722618
 delta_qm =   0.741295E-01 delta_en =   0.370925E+04 tol =   0.100000E-03
 Iteration #          3
  pAp =  -1.891352144287322  rzold =  1.0350645297096865  alpha =  -0.5472616682387869
 delta_qm =   0.360685E-01 delta_en =   0.878130E+03 tol =   0.100000E-03
 Iteration #          4
  pAp =  40.650544692380564  rzold =  1.9029859648277683  alpha =  0.04681329559612172
 delta_qm =   0.420994E-01 delta_en =   0.119634E+04 tol =   0.100000E-03
 Iteration #          5
  pAp =  0.9427625028164037  rzold =  -0.8467771051402279  alpha =  -0.8981870859421863
 delta_qm =   0.100863E-01 delta_en =   0.686696E+02 tol =   0.100000E-03
 Iteration #          6
  pAp =  1.1711369755601013  rzold =  0.3279560216866638  alpha =  0.2800321640684408
 delta_qm =   0.368711E-02 delta_en =   0.917649E+01 tol =   0.100000E-03
 Iteration #          7
  pAp =  0.04197313108225906  rzold =  0.0196956010938231  alpha =  0.46924307493819334
 delta_qm =   0.227924E-02 delta_en =   0.350657E+01 tol =   0.100000E-03
 Iteration #          8
  pAp =  0.005937040462836719  rzold =  0.0034599493398168057  alpha =  0.5827734140392975
 delta_qm =   0.265558E-02 delta_en =   0.476019E+01 tol =   0.100000E-03
 Iteration #          9
  pAp =  0.001957608990605622  rzold =  0.0020558323467961817  alpha =  1.050175166063256
 delta_qm =   0.324283E-02 delta_en =   0.709829E+01 tol =   0.100000E-03
 Iteration #         10
  pAp =  0.002873382242442622  rzold =  0.00486711989249926  alpha =  1.693864401542967
 delta_qm =   0.383053E-02 delta_en =   0.990425E+01 tol =   0.100000E-03
 Iteration #         11
  pAp =  0.01940834111897199  rzold =  0.022809482010121274  alpha =  1.1752411950254011
 delta_qm =   0.463208E-02 delta_en =   0.144829E+02 tol =   0.100000E-03
 Iteration #         12
  pAp =  0.3958850937587018  rzold =  0.050106843947810946  alpha =  0.12656916044015504
 delta_qm =   0.481850E-02 delta_en =   0.156721E+02 tol =   0.100000E-03
 Iteration #         13
  pAp =  0.920646679341612  rzold =  0.11785653092948524  alpha =  0.12801494164272523
 delta_qm =   0.392316E-02 delta_en =   0.103891E+02 tol =   0.100000E-03
 Iteration #         14
  pAp =  0.008343948098763055  rzold =  0.005450115561457377  alpha =  0.6531818627042187
 delta_qm =   0.248201E-02 delta_en =   0.415826E+01 tol =   0.100000E-03
 Iteration #         15
  pAp =  0.004115656481267923  rzold =  0.002319099868993572  alpha =  0.5634823701999346
 delta_qm =   0.163607E-02 delta_en =   0.180678E+01 tol =   0.100000E-03
 Iteration #         16
  pAp =  0.0011478797775334056  rzold =  0.0008694912533484552  alpha =  0.7574758876028298
 delta_qm =   0.104951E-02 delta_en =   0.743495E+00 tol =   0.100000E-03
 Iteration #         17
  pAp =  0.0023168019428444864  rzold =  0.0009176849890705559  alpha =  0.3960998875647761
 delta_qm =   0.596877E-03 delta_en =   0.240477E+00 tol =   0.100000E-03
 Iteration #         18
  pAp =  0.0008435714743069466  rzold =  0.0003752782524530549  alpha =  0.4448683530478225
 delta_qm =   0.232673E-03 delta_en =   0.365424E-01 tol =   0.100000E-03
 Iteration #         19
  pAp =  0.00008761569576908024  rzold =  0.000043096894935554715  alpha =  0.4918855526655955
 delta_qm =   0.127293E-03 delta_en =   0.109374E-01 tol =   0.100000E-03
 Iteration #         20
  pAp =  0.00001126461982429572  rzold =  0.000005565914901613063  alpha =  0.49410588092892443
 delta_qm =   0.750687E-04 delta_en =   0.380383E-02 tol =   0.100000E-03
 Iteration #         21
  pAp =  0.000001445937023244475  rzold =  0.000001009726054181479  alpha =  0.6983195242596381
 delta_qm =   0.365213E-04 delta_en =   0.900318E-03 tol =   0.100000E-03
 Iteration #         22
  pAp =  0.000003069520547477333  rzold =  6.074771691110516E-7  alpha =  0.19790620708185294
 delta_qm =   0.301320E-04 delta_en =   0.612860E-03 tol =   0.100000E-03
 Iteration #         23
  pAp =  0.00002452532859748159  rzold =  0.0000021332951807324877  alpha =  0.08698334753205089
 delta_qm =   0.169751E-04 delta_en =   0.194504E-03 tol =   0.100000E-03
 Iteration #         24
  pAp =  2.442318492598485E-7  rzold =  1.4046446294395217E-7  alpha =  0.5751275411852864
 delta_qm =   0.909929E-05 delta_en =   0.558880E-04 tol =   0.100000E-03
 Charges are converged, exit!

%%%% ELECTRONS %%%%%%%%%%%%%%%%%%%%%%%%%%%%%%%%%%%%%%%%%%%%%%%%%%%%%%%%%%%%%%%%%
 number of electrons        =         89
 total electronic charge    =     89.0000000
 number of spin components  =  1

%%%% BOUNDARY %%%%%%%%%%%%%%%%%%%%%%%%%%%%%%%%%%%%%%%%%%%%%%%%%%%%%%%%%%%%%%%%%%
 boundary mode              = electronic           
 boundary is built as a function of a smooth density
 function type              =  2 
 using the modified SCCS function with parameters 
 rhomax                     =      0.0050000 
 rhomin                     =      0.0001000 

%%%% DIELECTRIC %%%%%%%%%%%%%%%%%%%%%%%%%%%%%%%%%%%%%%%%%%%%%%%%%%%%%%%%%%%%%%%%%
 dielectric build on homogeneous background
 environment bulk permitt.  =    100.0000000 
 dielectric flags
 need gradient              =  F 
 need factor depend. sqrt   =  T 
 need gradient of logarithm =  T 

%%%% COMPUTE ELECTROSTATIC POTENTIAL %%%%%%%%%%%%%%%%%%%%%%%%%%%%%%%%%%%%%%%%%%%
 Warning: bad guess with residual norm =   0.145209E+06, reset to no guess
 Iteration #          1
  pAp =  1276.2883159867374  rzold =  1274.3545877786853  alpha =  0.9984848813674542
 delta_qm =   0.182824E+00 delta_en =   0.225615E+05 tol =   0.100000E-03
 Iteration #          2
  pAp =  1149.3344661186823  rzold =  29.061471910580366  alpha =  0.025285478481056382
 delta_qm =   0.242061E+00 delta_en =   0.395506E+05 tol =   0.100000E-03
 Iteration #          3
  pAp =  57.11816394268849  rzold =  2.4005137310722997  alpha =  0.042027151528906626
 delta_qm =   0.269109E+00 delta_en =   0.488832E+05 tol =   0.100000E-03
 Iteration #          4
  pAp =  1.7578665446521609  rzold =  -1.4184245594858893  alpha =  -0.8069011631179096
 delta_qm =   0.109814E+00 delta_en =   0.813998E+04 tol =   0.100000E-03
 Iteration #          5
  pAp =  -0.2914244408846635  rzold =  0.5191920513271198  alpha =  -1.7815666035114721
 delta_qm =   0.677600E+00 delta_en =   0.309920E+06 tol =   0.100000E-03
 Iteration #          6
  pAp =  111.47527877616557  rzold =  9.554229337398683  alpha =  0.08570715805593898
 delta_qm =   0.263336E-01 delta_en =   0.468084E+03 tol =   0.100000E-03
 Iteration #          7
  pAp =  0.21300575273845102  rzold =  0.06539592814333792  alpha =  0.30701484491659403
 delta_qm =   0.598276E-02 delta_en =   0.241606E+02 tol =   0.100000E-03
 Iteration #          8
  pAp =  0.031200817639674423  rzold =  0.010031693473588458  alpha =  0.3215202110867867
 delta_qm =   0.353323E-02 delta_en =   0.842649E+01 tol =   0.100000E-03
 Iteration #          9
  pAp =  0.002321302969150261  rzold =  0.0009744783962267199  alpha =  0.4197980225663687
 delta_qm =   0.270115E-02 delta_en =   0.492496E+01 tol =   0.100000E-03
 Iteration #         10
  pAp =  0.0007702583653052281  rzold =  0.00035572354265002453  alpha =  0.4618236668018048
 delta_qm =   0.230606E-02 delta_en =   0.358959E+01 tol =   0.100000E-03
 Iteration #         11
  pAp =  0.00026502412773350546  rzold =  0.00022288123787912674  alpha =  0.840984704997292
 delta_qm =   0.237310E-02 delta_en =   0.380133E+01 tol =   0.100000E-03
 Iteration #         12
  pAp =  0.00553262281908133  rzold =  0.00047671287397165173  alpha =  0.08616399302109086
 delta_qm =   0.165413E-02 delta_en =   0.184690E+01 tol =   0.100000E-03
 Iteration #         13
  pAp =  0.004932832949296491  rzold =  0.0012184600022082674  alpha =  0.247010189627857
 delta_qm =   0.208960E-02 delta_en =   0.294734E+01 tol =   0.100000E-03
 Iteration #         14
  pAp =  0.0009628889107990398  rzold =  0.0005676106237759583  alpha =  0.5894871333650884
 delta_qm =   0.245593E-02 delta_en =   0.407133E+01 tol =   0.100000E-03
 Iteration #         15
  pAp =  0.000413475714444713  rzold =  0.0004359629761665953  alpha =  1.05438593111105
 delta_qm =   0.418933E-02 delta_en =   0.118466E+02 tol =   0.100000E-03
 Iteration #         16
  pAp =  -0.0005425421886231768  rzold =  0.0018488620300419248  alpha =  -3.407775595726167
 delta_qm =   0.275684E-01 delta_en =   0.513011E+03 tol =   0.100000E-03
 Iteration #         17
  pAp =  0.4953996385033538  rzold =  0.048859587725495  alpha =  0.09862661158394088
 delta_qm =   0.269360E-02 delta_en =   0.489743E+01 tol =   0.100000E-03
 Iteration #         18
  pAp =  0.0026154007695291474  rzold =  0.0007083906204340473  alpha =  0.2708535642748088
 delta_qm =   0.111952E-02 delta_en =   0.845999E+00 tol =   0.100000E-03
 Iteration #         19
  pAp =  0.00013554905273863483  rzold =  0.00007249030744706399  alpha =  0.5347902178766201
 delta_qm =   0.671760E-03 delta_en =   0.304601E+00 tol =   0.100000E-03
 Iteration #         20
  pAp =  0.00008175395718863413  rzold =  0.00003571383958060178  alpha =  0.4368453932841175
 delta_qm =   0.457893E-03 delta_en =   0.141524E+00 tol =   0.100000E-03
 Iteration #         21
  pAp =  0.00003156791938839754  rzold =  0.000017537272780130974  alpha =  0.555540977039387
 delta_qm =   0.359459E-03 delta_en =   0.872173E-01 tol =   0.100000E-03
 Iteration #         22
  pAp =  0.00013665874250489966  rzold =  0.000011559013356246985  alpha =  0.08458305077578594
 delta_qm =   0.351164E-03 delta_en =   0.832385E-01 tol =   0.100000E-03
 Iteration #         23
  pAp =  0.0001860603818482178  rzold =  0.000027199941007537196  alpha =  0.14618878418580292
 delta_qm =   0.239642E-03 delta_en =   0.387642E-01 tol =   0.100000E-03
 Iteration #         24
  pAp =  0.0000054514096907030986  rzold =  0.000002975003669296256  alpha =  0.545731074729141
 delta_qm =   0.146368E-03 delta_en =   0.144609E-01 tol =   0.100000E-03
 Iteration #         25
  pAp =  0.000002093146022506506  rzold =  0.0000011520023001806484  alpha =  0.5503688169835116
 delta_qm =   0.110421E-03 delta_en =   0.823015E-02 tol =   0.100000E-03
 Iteration #         26
  pAp =  0.000007771522845828353  rzold =  0.000001916850243691019  alpha =  0.24665053191215386
 delta_qm =   0.103988E-03 delta_en =   0.729916E-02 tol =   0.100000E-03
 Iteration #         27
  pAp =  0.0000014358308889498207  rzold =  7.67816104476929E-7  alpha =  0.5347538560328066
 delta_qm =   0.872295E-04 delta_en =   0.513606E-02 tol =   0.100000E-03
 Iteration #         28
  pAp =  0.0000011023061311229664  rzold =  5.269597146027213E-7  alpha =  0.47805205806655987
 delta_qm =   0.638508E-04 delta_en =   0.275192E-02 tol =   0.100000E-03
 Iteration #         29
  pAp =  4.310147559218458E-7  rzold =  1.4341545228338926E-7  alpha =  0.33273907752103554
 delta_qm =   0.797163E-04 delta_en =   0.428942E-02 tol =   0.100000E-03
 Iteration #         30
  pAp =  3.443677459058998E-7  rzold =  -1.0777228427656232E-8  alpha =  -0.03129569640532236
 delta_qm =   0.750427E-04 delta_en =   0.380120E-02 tol =   0.100000E-03
 Iteration #         31
  pAp =  1.0781251173656558E-9  rzold =  1.0940075168112761E-8  alpha =  10.147314993313838
 delta_qm =   0.959643E-04 delta_en =   0.621618E-02 tol =   0.100000E-03
 Iteration #         32
  pAp =  -8.661950581387361E-8  rzold =  2.1933868330819798E-7  alpha =  -2.532208897375943
 delta_qm =   0.117792E-02 delta_en =   0.936565E+00 tol =   0.100000E-03
 Iteration #         33
  pAp =  0.022801595821686508  rzold =  0.00010187679270381551  alpha =  0.004467967658953103
 delta_qm =   0.133717E-03 delta_en =   0.120692E-01 tol =   0.100000E-03
 Iteration #         34
  pAp =  6.437039324390118E-7  rzold =  2.562275812266023E-7  alpha =  0.3980519122444211
 delta_qm =   0.394418E-04 delta_en =   0.105007E-02 tol =   0.100000E-03
 Iteration #         35
  pAp =  1.288681440421324E-7  rzold =  7.912161126221856E-8  alpha =  0.6139733900128986
 delta_qm =   0.213562E-04 delta_en =   0.307859E-03 tol =   0.100000E-03
 Iteration #         36
  pAp =  3.84184649764974E-8  rzold =  2.9013327660406874E-8  alpha =  0.7551922670037924
 delta_qm =   0.145113E-04 delta_en =   0.142141E-03 tol =   0.100000E-03
 Iteration #         37
  pAp =  1.2112873819341873E-8  rzold =  8.998690064370893E-9  alpha =  0.7429029806289039
 delta_qm =   0.889369E-05 delta_en =   0.533910E-04 tol =   0.100000E-03
 Charges are converged, exit!

%%%% ELECTRONS %%%%%%%%%%%%%%%%%%%%%%%%%%%%%%%%%%%%%%%%%%%%%%%%%%%%%%%%%%%%%%%%%
 number of electrons        =         89
 total electronic charge    =     89.0000000
 number of spin components  =  1

%%%% BOUNDARY %%%%%%%%%%%%%%%%%%%%%%%%%%%%%%%%%%%%%%%%%%%%%%%%%%%%%%%%%%%%%%%%%%
 boundary mode              = electronic           
 boundary is built as a function of a smooth density
 function type              =  2 
 using the modified SCCS function with parameters 
 rhomax                     =      0.0050000 
 rhomin                     =      0.0001000 

%%%% DIELECTRIC %%%%%%%%%%%%%%%%%%%%%%%%%%%%%%%%%%%%%%%%%%%%%%%%%%%%%%%%%%%%%%%%%
 dielectric build on homogeneous background
 environment bulk permitt.  =    100.0000000 
 dielectric flags
 need gradient              =  F 
 need factor depend. sqrt   =  T 
 need gradient of logarithm =  T 

%%%% COMPUTE ELECTROSTATIC POTENTIAL %%%%%%%%%%%%%%%%%%%%%%%%%%%%%%%%%%%%%%%%%%%
 Warning: bad guess with residual norm =   0.159267E+04, reset to no guess
 Iteration #          1
  pAp =  1276.0776265854993  rzold =  1273.2022894884615  alpha =  0.9977467381003055
 delta_qm =   0.104949E+00 delta_en =   0.743472E+04 tol =   0.100000E-03
 Iteration #          2
  pAp =  2357.1776802525274  rzold =  70.94965541355205  alpha =  0.030099409139980965
 delta_qm =   0.104051E+00 delta_en =   0.730803E+04 tol =   0.100000E-03
 Iteration #          3
  pAp =  24.094604520444282  rzold =  3.268923570026276  alpha =  0.1356703558779142
 delta_qm =   0.121042E+00 delta_en =   0.988951E+04 tol =   0.100000E-03
 Iteration #          4
  pAp =  -4.124628067136697  rzold =  0.8627576549174355  alpha =  -0.20917223101678573
 delta_qm =   0.737331E-01 delta_en =   0.366968E+04 tol =   0.100000E-03
 Iteration #          5
  pAp =  0.7473430450568768  rzold =  -0.509496038482616  alpha =  -0.6817431992611114
 delta_qm =   0.176108E-01 delta_en =   0.209344E+03 tol =   0.100000E-03
 Iteration #          6
  pAp =  0.664669535833382  rzold =  0.21333949412233133  alpha =  0.3209707721218787
 delta_qm =   0.594548E-02 delta_en =   0.238604E+02 tol =   0.100000E-03
 Iteration #          7
  pAp =  0.03995273050746478  rzold =  0.017523228785182504  alpha =  0.4385990284671147
 delta_qm =   0.137416E-02 delta_en =   0.127462E+01 tol =   0.100000E-03
 Iteration #          8
  pAp =  0.003567868349689635  rzold =  0.0016414811131283753  alpha =  0.46007334134712846
 delta_qm =   0.100441E-02 delta_en =   0.680972E+00 tol =   0.100000E-03
 Iteration #          9
  pAp =  0.0008071251673851046  rzold =  0.00028702709169652876  alpha =  0.3556165800484563
 delta_qm =   0.941524E-03 delta_en =   0.598366E+00 tol =   0.100000E-03
 Iteration #         10
  pAp =  0.00017701849316061188  rzold =  0.00010531203251295274  alpha =  0.5949210765080988
 delta_qm =   0.735571E-03 delta_en =   0.365218E+00 tol =   0.100000E-03
 Iteration #         11
  pAp =  0.00011854382387468215  rzold =  0.00010981491011666206  alpha =  0.9263655121565186
 delta_qm =   0.490378E-03 delta_en =   0.162317E+00 tol =   0.100000E-03
 Iteration #         12
  pAp =  0.0004703344199238751  rzold =  0.00013367492866169195  alpha =  0.284212515603956
 delta_qm =   0.715665E-03 delta_en =   0.345719E+00 tol =   0.100000E-03
 Iteration #         13
  pAp =  0.009877510855374947  rzold =  0.0006028230701772361  alpha =  0.06102985650977077
 delta_qm =   0.633773E-03 delta_en =   0.271126E+00 tol =   0.100000E-03
 Iteration #         14
  pAp =  0.0001343165056177975  rzold =  0.00008067539771761028  alpha =  0.6006365140794763
 delta_qm =   0.717223E-03 delta_en =   0.347226E+00 tol =   0.100000E-03
 Iteration #         15
  pAp =  0.00011757067490561105  rzold =  0.00008126809476703723  alpha =  0.6912275942302915
 delta_qm =   0.774665E-03 delta_en =   0.405071E+00 tol =   0.100000E-03
 Iteration #         16
  pAp =  0.0000888218979160911  rzold =  0.00011914525730979595  alpha =  1.341395085053811
 delta_qm =   0.979791E-03 delta_en =   0.647993E+00 tol =   0.100000E-03
 Iteration #         17
  pAp =  0.0002449567786748099  rzold =  0.00028243760062843503  alpha =  1.1530099397795495
 delta_qm =   0.844277E-03 delta_en =   0.481142E+00 tol =   0.100000E-03
 Iteration #         18
  pAp =  0.0005784768200403062  rzold =  0.00035174273717821663  alpha =  0.608049838805483
 delta_qm =   0.449741E-03 delta_en =   0.136530E+00 tol =   0.100000E-03
 Iteration #         19
  pAp =  0.00012883877221534792  rzold =  0.00006416968340652952  alpha =  0.49806189785224686
 delta_qm =   0.275658E-03 delta_en =   0.512913E-01 tol =   0.100000E-03
 Iteration #         20
  pAp =  0.000020326600696228637  rzold =  0.000010292434663520172  alpha =  0.5063529715241473
 delta_qm =   0.149712E-03 delta_en =   0.151293E-01 tol =   0.100000E-03
 Iteration #         21
  pAp =  0.000003379470110873094  rzold =  0.000002570068996622098  alpha =  0.760494667005093
 delta_qm =   0.712904E-04 delta_en =   0.343057E-02 tol =   0.100000E-03
 Iteration #         22
  pAp =  0.0000029328745859126203  rzold =  9.899906619467255E-7  alpha =  0.3375496063493185
 delta_qm =   0.479243E-04 delta_en =   0.155030E-02 tol =   0.100000E-03
 Iteration #         23
  pAp =  0.00008727217484030306  rzold =  0.000004435256447172131  alpha =  0.0508209684849505
 delta_qm =   0.390342E-04 delta_en =   0.102848E-02 tol =   0.100000E-03
 Iteration #         24
  pAp =  8.130411715638286E-7  rzold =  3.778815097489346E-7  alpha =  0.46477536804453035
 delta_qm =   0.210598E-04 delta_en =   0.299373E-03 tol =   0.100000E-03
 Iteration #         25
  pAp =  3.8288549232915315E-7  rzold =  1.0616548185808772E-7  alpha =  0.2772773687826777
 delta_qm =   0.176918E-04 delta_en =   0.211274E-03 tol =   0.100000E-03
 Iteration #         26
  pAp =  1.999585535202754E-7  rzold =  6.45312005925772E-8  alpha =  0.32272288159973045
 delta_qm =   0.117055E-04 delta_en =   0.924881E-04 tol =   0.100000E-03
 Charges are converged, exit!

%%%% ELECTRONS %%%%%%%%%%%%%%%%%%%%%%%%%%%%%%%%%%%%%%%%%%%%%%%%%%%%%%%%%%%%%%%%%
 number of electrons        =         89
 total electronic charge    =     89.0000000
 number of spin components  =  1

%%%% BOUNDARY %%%%%%%%%%%%%%%%%%%%%%%%%%%%%%%%%%%%%%%%%%%%%%%%%%%%%%%%%%%%%%%%%%
 boundary mode              = electronic           
 boundary is built as a function of a smooth density
 function type              =  2 
 using the modified SCCS function with parameters 
 rhomax                     =      0.0050000 
 rhomin                     =      0.0001000 

%%%% DIELECTRIC %%%%%%%%%%%%%%%%%%%%%%%%%%%%%%%%%%%%%%%%%%%%%%%%%%%%%%%%%%%%%%%%%
 dielectric build on homogeneous background
 environment bulk permitt.  =    100.0000000 
 dielectric flags
 need gradient              =  F 
 need factor depend. sqrt   =  T 
 need gradient of logarithm =  T 

%%%% COMPUTE ELECTROSTATIC POTENTIAL %%%%%%%%%%%%%%%%%%%%%%%%%%%%%%%%%%%%%%%%%%%
 Warning: bad guess with residual norm =   0.549596E+03, reset to no guess
 Iteration #          1
  pAp =  1273.604031097147  rzold =  1271.1804100149004  alpha =  0.9980970372085279
 delta_qm =   0.115942E+00 delta_en =   0.907378E+04 tol =   0.100000E-03
 Iteration #          2
  pAp =  1825.0586806031247  rzold =  54.1418807762357  alpha =  0.029665830119140885
 delta_qm =   0.126665E+00 delta_en =   0.108297E+05 tol =   0.100000E-03
 Iteration #          3
  pAp =  31.86264027607727  rzold =  3.633025662614039  alpha =  0.11402148821112432
 delta_qm =   0.144252E+00 delta_en =   0.140457E+05 tol =   0.100000E-03
 Iteration #          4
  pAp =  -2.9180935914393196  rzold =  0.3504498704264866  alpha =  -0.12009548681186433
 delta_qm =   0.109650E+00 delta_en =   0.811559E+04 tol =   0.100000E-03
 Iteration #          5
  pAp =  0.18337829081296741  rzold =  -0.23751416438286277  alpha =  -1.2952141899125345
 delta_qm =   0.262915E-01 delta_en =   0.466587E+03 tol =   0.100000E-03
 Iteration #          6
  pAp =  0.6201138007473017  rzold =  0.21991270914633762  alpha =  0.35463282526742657
 delta_qm =   0.793104E-02 delta_en =   0.424584E+02 tol =   0.100000E-03
 Iteration #          7
  pAp =  0.05554598519809742  rzold =  0.022360797671036867  alpha =  0.4025637062929037
 delta_qm =   0.186544E-02 delta_en =   0.234890E+01 tol =   0.100000E-03
 Iteration #          8
  pAp =  0.005465993440816094  rzold =  0.002408286857703018  alpha =  0.44059453853706987
 delta_qm =   0.133391E-02 delta_en =   0.120103E+01 tol =   0.100000E-03
 Iteration #          9
  pAp =  0.0008776940770434123  rzold =  0.0003257244188116372  alpha =  0.3711138394699755
 delta_qm =   0.125669E-02 delta_en =   0.106601E+01 tol =   0.100000E-03
 Iteration #         10
  pAp =  0.0002760572629201966  rzold =  0.00014749983496737082  alpha =  0.5343088365329859
 delta_qm =   0.945554E-03 delta_en =   0.603499E+00 tol =   0.100000E-03
 Iteration #         11
  pAp =  0.00011842765943372432  rzold =  0.00011504772997537054  alpha =  0.9714599657333827
 delta_qm =   0.432622E-03 delta_en =   0.126334E+00 tol =   0.100000E-03
 Iteration #         12
  pAp =  0.0016911439609324397  rzold =  0.00012686498171181232  alpha =  0.07501725733737254
 delta_qm =   0.501797E-03 delta_en =   0.169965E+00 tol =   0.100000E-03
 Iteration #         13
  pAp =  0.0008370202036445446  rzold =  0.00019178632480727694  alpha =  0.22912986326041226
 delta_qm =   0.424158E-03 delta_en =   0.121439E+00 tol =   0.100000E-03
 Iteration #         14
  pAp =  0.00011008051291141164  rzold =  0.00004748327542277777  alpha =  0.4313504194969585
 delta_qm =   0.465267E-03 delta_en =   0.146119E+00 tol =   0.100000E-03
 Iteration #         15
  pAp =  0.00004884553230999044  rzold =  0.000028542859824693116  alpha =  0.5843494476332118
 delta_qm =   0.547130E-03 delta_en =   0.202062E+00 tol =   0.100000E-03
 Iteration #         16
  pAp =  0.000021846314720570325  rzold =  0.000032414532901352323  alpha =  1.483752903679953
 delta_qm =   0.766667E-03 delta_en =   0.396750E+00 tol =   0.100000E-03
 Iteration #         17
  pAp =  0.00004644478199821062  rzold =  0.00009887912894850887  alpha =  2.12896098752963
 delta_qm =   0.997732E-03 delta_en =   0.671942E+00 tol =   0.100000E-03
 Iteration #         18
  pAp =  0.00044401278278669476  rzold =  0.000438246354303867  alpha =  0.9870129223608457
 delta_qm =   0.136159E-02 delta_en =   0.125140E+01 tol =   0.100000E-03
 Iteration #         19
  pAp =  0.0005473104017830928  rzold =  0.0003259692724102533  alpha =  0.5955839160890638
 delta_qm =   0.955401E-03 delta_en =   0.616135E+00 tol =   0.100000E-03
 Iteration #         20
  pAp =  0.0002319339564566921  rzold =  0.00011790395000486488  alpha =  0.5083513936730542
 delta_qm =   0.590511E-03 delta_en =   0.235374E+00 tol =   0.100000E-03
 Iteration #         21
  pAp =  0.00006062119043951946  rzold =  0.00003837956895884652  alpha =  0.6331048381033864
 delta_qm =   0.341741E-03 delta_en =   0.788310E-01 tol =   0.100000E-03
 Iteration #         22
  pAp =  0.00022395074659191955  rzold =  0.000021981895609426372  alpha =  0.09815504499961113
 delta_qm =   0.278643E-03 delta_en =   0.524082E-01 tol =   0.100000E-03
 Iteration #         23
  pAp =  0.0003049701967803548  rzold =  0.00004630787707742408  alpha =  0.15184394267475215
 delta_qm =   0.170082E-03 delta_en =   0.195264E-01 tol =   0.100000E-03
 Iteration #         24
  pAp =  0.000010966893230050856  rzold =  0.000005416336330195975  alpha =  0.49388064756155725
 delta_qm =   0.683157E-04 delta_en =   0.315025E-02 tol =   0.100000E-03
 Iteration #         25
  pAp =  0.000002881516343367945  rzold =  0.0000010952138327694743  alpha =  0.3800824643213293
 delta_qm =   0.477296E-04 delta_en =   0.153773E-02 tol =   0.100000E-03
 Iteration #         26
  pAp =  0.000001825855945816254  rzold =  3.93197595219298E-7  alpha =  0.21534973562414197
 delta_qm =   0.359433E-04 delta_en =   0.872045E-03 tol =   0.100000E-03
 Iteration #         27
  pAp =  3.2976752287037853E-7  rzold =  1.700808810226706E-7  alpha =  0.5157599497435172
 delta_qm =   0.218496E-04 delta_en =   0.322248E-03 tol =   0.100000E-03
 Iteration #         28
  pAp =  6.010519766035997E-8  rzold =  4.09065024394309E-8  alpha =  0.6805817804740235
 delta_qm =   0.128369E-04 delta_en =   0.111231E-03 tol =   0.100000E-03
 Iteration #         29
  pAp =  5.115950938855011E-8  rzold =  -2.2308924124422182E-8  alpha =  -0.43606602938641725
 delta_qm =   0.223432E-04 delta_en =   0.336974E-03 tol =   0.100000E-03
 Iteration #         30
  pAp =  -1.176956367375681E-7  rzold =  5.0841600992050895E-8  alpha =  -0.4319752405555609
 delta_qm =   0.252845E-04 delta_en =   0.431531E-03 tol =   0.100000E-03
 Iteration #         31
  pAp =  7.594631805402579E-8  rzold =  4.422697602371306E-8  alpha =  0.5823452295903456
 delta_qm =   0.976624E-05 delta_en =   0.643811E-04 tol =   0.100000E-03
 Charges are converged, exit!

%%%% ELECTRONS %%%%%%%%%%%%%%%%%%%%%%%%%%%%%%%%%%%%%%%%%%%%%%%%%%%%%%%%%%%%%%%%%
 number of electrons        =         89
 total electronic charge    =     89.0000000
 number of spin components  =  1

%%%% BOUNDARY %%%%%%%%%%%%%%%%%%%%%%%%%%%%%%%%%%%%%%%%%%%%%%%%%%%%%%%%%%%%%%%%%%
 boundary mode              = electronic           
 boundary is built as a function of a smooth density
 function type              =  2 
 using the modified SCCS function with parameters 
 rhomax                     =      0.0050000 
 rhomin                     =      0.0001000 

%%%% DIELECTRIC %%%%%%%%%%%%%%%%%%%%%%%%%%%%%%%%%%%%%%%%%%%%%%%%%%%%%%%%%%%%%%%%%
 dielectric build on homogeneous background
 environment bulk permitt.  =    100.0000000 
 dielectric flags
 need gradient              =  F 
 need factor depend. sqrt   =  T 
 need gradient of logarithm =  T 

%%%% COMPUTE ELECTROSTATIC POTENTIAL %%%%%%%%%%%%%%%%%%%%%%%%%%%%%%%%%%%%%%%%%%%
 Warning: bad guess with residual norm =   0.107550E+03, reset to no guess
 Iteration #          1
  pAp =  1272.341132780596  rzold =  1270.0460202167708  alpha =  0.9981961499909939
 delta_qm =   0.112356E+00 delta_en =   0.852118E+04 tol =   0.100000E-03
 Iteration #          2
  pAp =  1662.9837291614313  rzold =  49.91071618720143  alpha =  0.03001275076357433
 delta_qm =   0.118837E+00 delta_en =   0.953246E+04 tol =   0.100000E-03
 Iteration #          3
  pAp =  36.197948538930504  rzold =  4.012010638377552  alpha =  0.11083530421793593
 delta_qm =   0.133711E+00 delta_en =   0.120681E+05 tol =   0.100000E-03
 Iteration #          4
  pAp =  -2.9583287670845424  rzold =  0.44924568567466366  alpha =  -0.15185793096194614
 delta_qm =   0.945883E-01 delta_en =   0.603918E+04 tol =   0.100000E-03
 Iteration #          5
  pAp =  0.2872478072125707  rzold =  -0.289683668183077  alpha =  -1.0084799984868247
 delta_qm =   0.236640E-01 delta_en =   0.377989E+03 tol =   0.100000E-03
 Iteration #          6
  pAp =  0.5502224659173041  rzold =  0.19781568528495844  alpha =  0.3595194626507476
 delta_qm =   0.725877E-02 delta_en =   0.355656E+02 tol =   0.100000E-03
 Iteration #          7
  pAp =  0.04886693661107469  rzold =  0.019349762508264347  alpha =  0.395968396019306
 delta_qm =   0.198891E-02 delta_en =   0.267014E+01 tol =   0.100000E-03
 Iteration #          8
  pAp =  0.0059229450031741526  rzold =  0.0025248797835931655  alpha =  0.4262878993878995
 delta_qm =   0.140839E-02 delta_en =   0.133890E+01 tol =   0.100000E-03
 Iteration #          9
  pAp =  0.0005644051700784354  rzold =  0.0002764765975493848  alpha =  0.48985482806786274
 delta_qm =   0.128625E-02 delta_en =   0.111674E+01 tol =   0.100000E-03
 Iteration #         10
  pAp =  0.00022655741620045293  rzold =  0.00013475410999688636  alpha =  0.5947901077652604
 delta_qm =   0.896675E-03 delta_en =   0.542718E+00 tol =   0.100000E-03
 Iteration #         11
  pAp =  0.00024410813150349883  rzold =  0.0001595510512839743  alpha =  0.6536080969579968
 delta_qm =   0.444633E-03 delta_en =   0.133447E+00 tol =   0.100000E-03
 Iteration #         12
  pAp =  0.00047150895932212747  rzold =  0.00010281598443921433  alpha =  0.218057329360251
 delta_qm =   0.333945E-03 delta_en =   0.752755E-01 tol =   0.100000E-03
 Iteration #         13
  pAp =  0.0062463549962202625  rzold =  0.00042503953871242926  alpha =  0.06804601066856196
 delta_qm =   0.374363E-03 delta_en =   0.945998E-01 tol =   0.100000E-03
 Iteration #         14
  pAp =  0.00007276222526004646  rzold =  0.00003270455424574068  alpha =  0.44947160602712716
 delta_qm =   0.312826E-03 delta_en =   0.660557E-01 tol =   0.100000E-03
 Iteration #         15
  pAp =  0.00003070866770817961  rzold =  0.000014403233039865416  alpha =  0.46902826188154517
 delta_qm =   0.321125E-03 delta_en =   0.696068E-01 tol =   0.100000E-03
 Iteration #         16
  pAp =  0.000014564376121514234  rzold =  0.000012737648177390855  alpha =  0.8745756132028911
 delta_qm =   0.402707E-03 delta_en =   0.109467E+00 tol =   0.100000E-03
 Iteration #         17
  pAp =  0.000011918497450762386  rzold =  0.000022269700633784083  alpha =  1.8684990054983455
 delta_qm =   0.620701E-03 delta_en =   0.260057E+00 tol =   0.100000E-03
 Iteration #         18
  pAp =  0.00006308865378436272  rzold =  0.0001143105601980343  alpha =  1.8119036203997674
 delta_qm =   0.136276E-02 delta_en =   0.125356E+01 tol =   0.100000E-03
 Iteration #         19
  pAp =  0.0003020004002827106  rzold =  0.0002927898112587914  alpha =  0.9695014012719952
 delta_qm =   0.172764E-02 delta_en =   0.201469E+01 tol =   0.100000E-03
 Iteration #         20
  pAp =  0.00035258540233027146  rzold =  0.0003073841880899149  alpha =  0.8718006646287189
 delta_qm =   0.142976E-02 delta_en =   0.137984E+01 tol =   0.100000E-03
 Iteration #         21
  pAp =  0.00022499013746251484  rzold =  0.00024458376375783073  alpha =  1.0870866008452498
 delta_qm =   0.103873E-02 delta_en =   0.728294E+00 tol =   0.100000E-03
 Iteration #         22
  pAp =  0.0004409010873941069  rzold =  0.00018426896956159086  alpha =  0.4179372082085135
 delta_qm =   0.705968E-03 delta_en =   0.336414E+00 tol =   0.100000E-03
 Iteration #         23
  pAp =  0.022028080188418297  rzold =  0.000999853741116495  alpha =  0.04538996283671548
 delta_qm =   0.650931E-03 delta_en =   0.286005E+00 tol =   0.100000E-03
 Iteration #         24
  pAp =  0.0001237025566174067  rzold =  0.00006878871992379252  alpha =  0.5560816348892903
 delta_qm =   0.422753E-03 delta_en =   0.120636E+00 tol =   0.100000E-03
 Iteration #         25
  pAp =  0.00003625555020784694  rzold =  0.000019695637139559262  alpha =  0.5432447453327147
 delta_qm =   0.307162E-03 delta_en =   0.636851E-01 tol =   0.100000E-03
 Iteration #         26
  pAp =  0.000047299798513169414  rzold =  0.000015603584946354188  alpha =  0.32988692207662934
 delta_qm =   0.237215E-03 delta_en =   0.379828E-01 tol =   0.100000E-03
 Iteration #         27
  pAp =  0.0000438654672264249  rzold =  0.00001343289157580023  alpha =  0.30622930576488083
 delta_qm =   0.144379E-03 delta_en =   0.140706E-01 tol =   0.100000E-03
 Iteration #         28
  pAp =  0.000007374235057662411  rzold =  0.0000038145975435443575  alpha =  0.5172872187713478
 delta_qm =   0.129601E-03 delta_en =   0.113376E-01 tol =   0.100000E-03
 Iteration #         29
  pAp =  -3.9829420283455774E-7  rzold =  -4.2353424015299613E-7  alpha =  1.06337033564338
 delta_qm =   0.477171E-03 delta_en =   0.153692E+00 tol =   0.100000E-03
 Iteration #         30
  pAp =  0.00027431939917742297  rzold =  0.000011697850128242327  alpha =  0.042643174938847284
 delta_qm =   0.127740E-03 delta_en =   0.110144E-01 tol =   0.100000E-03
 Iteration #         31
  pAp =  2.1814322664943636E-7  rzold =  4.4821585732724655E-7  alpha =  2.0546861078916048
 delta_qm =   0.865127E-04 delta_en =   0.505200E-02 tol =   0.100000E-03
 Iteration #         32
  pAp =  5.479719121433907E-7  rzold =  4.703935887907597E-7  alpha =  0.8584264601278858
 delta_qm =   0.418971E-04 delta_en =   0.118487E-02 tol =   0.100000E-03
 Iteration #         33
  pAp =  6.387655119778719E-7  rzold =  1.7097916654815587E-7  alpha =  0.2676712554795522
 delta_qm =   0.354993E-04 delta_en =   0.850633E-03 tol =   0.100000E-03
 Iteration #         34
  pAp =  0.000012893855876816505  rzold =  9.279382797156642E-7  alpha =  0.07196747726831054
 delta_qm =   0.226316E-04 delta_en =   0.345728E-03 tol =   0.100000E-03
 Iteration #         35
  pAp =  1.38243106674742E-7  rzold =  7.22603325016997E-8  alpha =  0.5227047788481318
 delta_qm =   0.100320E-04 delta_en =   0.679323E-04 tol =   0.100000E-03
 Charges are converged, exit!

%%%% ELECTRONS %%%%%%%%%%%%%%%%%%%%%%%%%%%%%%%%%%%%%%%%%%%%%%%%%%%%%%%%%%%%%%%%%
 number of electrons        =         89
 total electronic charge    =     89.0000000
 number of spin components  =  1

%%%% BOUNDARY %%%%%%%%%%%%%%%%%%%%%%%%%%%%%%%%%%%%%%%%%%%%%%%%%%%%%%%%%%%%%%%%%%
 boundary mode              = electronic           
 boundary is built as a function of a smooth density
 function type              =  2 
 using the modified SCCS function with parameters 
 rhomax                     =      0.0050000 
 rhomin                     =      0.0001000 

%%%% DIELECTRIC %%%%%%%%%%%%%%%%%%%%%%%%%%%%%%%%%%%%%%%%%%%%%%%%%%%%%%%%%%%%%%%%%
 dielectric build on homogeneous background
 environment bulk permitt.  =    100.0000000 
 dielectric flags
 need gradient              =  F 
 need factor depend. sqrt   =  T 
 need gradient of logarithm =  T 

%%%% COMPUTE ELECTROSTATIC POTENTIAL %%%%%%%%%%%%%%%%%%%%%%%%%%%%%%%%%%%%%%%%%%%
 Warning: bad guess with residual norm =   0.870785E+02, reset to no guess
 Iteration #          1
  pAp =  1271.5110099872225  rzold =  1269.4907259789259  alpha =  0.9984111155999217
 delta_qm =   0.962041E-01 delta_en =   0.624728E+04 tol =   0.100000E-03
 Iteration #          2
  pAp =  1222.9226346952767  rzold =  39.29829913021797  alpha =  0.03213473854788056
 delta_qm =   0.966377E-01 delta_en =   0.630372E+04 tol =   0.100000E-03
 Iteration #          3
  pAp =  41.18844635280883  rzold =  4.610176847757397  alpha =  0.11192888433489086
 delta_qm =   0.103969E+00 delta_en =   0.729645E+04 tol =   0.100000E-03
 Iteration #          4
  pAp =  -3.11849545185888  rzold =  0.7506403543757312  alpha =  -0.24070593206358143
 delta_qm =   0.619439E-01 delta_en =   0.259001E+04 tol =   0.100000E-03
 Iteration #          5
  pAp =  0.8177747892145191  rzold =  -0.495400964284376  alpha =  -0.6057914364909851
 delta_qm =   0.153992E-01 delta_en =   0.160066E+03 tol =   0.100000E-03
 Iteration #          6
  pAp =  0.5541846873082598  rzold =  0.18893569398611756  alpha =  0.34092550428233676
 delta_qm =   0.504610E-02 delta_en =   0.171876E+02 tol =   0.100000E-03
 Iteration #          7
  pAp =  0.042270582316156026  rzold =  0.016355175270515693  alpha =  0.3869162517845103
 delta_qm =   0.160311E-02 delta_en =   0.173472E+01 tol =   0.100000E-03
 Iteration #          8
  pAp =  0.005223719286447539  rzold =  0.002199087167224802  alpha =  0.4209811145346443
 delta_qm =   0.105440E-02 delta_en =   0.750431E+00 tol =   0.100000E-03
 Iteration #          9
  pAp =  0.0011725629051292223  rzold =  0.00038629911153615243  alpha =  0.32944851815313086
 delta_qm =   0.102395E-02 delta_en =   0.707715E+00 tol =   0.100000E-03
 Iteration #         10
  pAp =  0.0002550592422122664  rzold =  0.0001369907609488424  alpha =  0.5370938914451703
 delta_qm =   0.817683E-03 delta_en =   0.451308E+00 tol =   0.100000E-03
 Iteration #         11
  pAp =  0.00008679648059532883  rzold =  0.00008766076559066439  alpha =  1.0099576041494713
 delta_qm =   0.308605E-03 delta_en =   0.642851E-01 tol =   0.100000E-03
 Iteration #         12
  pAp =  0.00014235076043337086  rzold =  0.00006181748660661565  alpha =  0.4342617237759691
 delta_qm =   0.265583E-03 delta_en =   0.476108E-01 tol =   0.100000E-03
 Iteration #         13
  pAp =  0.004862220920214436  rzold =  0.00018262417066593133  alpha =  0.0375598257797544
 delta_qm =   0.179768E-03 delta_en =   0.218137E-01 tol =   0.100000E-03
 Iteration #         14
  pAp =  0.00004970720534403508  rzold =  0.000017005629888043722  alpha =  0.34211599244704705
 delta_qm =   0.130500E-03 delta_en =   0.114954E-01 tol =   0.100000E-03
 Iteration #         15
  pAp =  0.000013579144172831734  rzold =  0.00000502575261131394  alpha =  0.37010820029211694
 delta_qm =   0.109624E-03 delta_en =   0.811169E-02 tol =   0.100000E-03
 Iteration #         16
  pAp =  0.000003603792144267614  rzold =  0.0000023286170610726453  alpha =  0.6461574274689147
 delta_qm =   0.120678E-03 delta_en =   0.983012E-02 tol =   0.100000E-03
 Iteration #         17
  pAp =  0.0000014915594620954188  rzold =  0.0000020083438090208013  alpha =  1.3464725075052506
 delta_qm =   0.154571E-03 delta_en =   0.161272E-01 tol =   0.100000E-03
 Iteration #         18
  pAp =  0.000003859932581273362  rzold =  0.000006787577634537855  alpha =  1.7584705151245636
 delta_qm =   0.251098E-03 delta_en =   0.425589E-01 tol =   0.100000E-03
 Iteration #         19
  pAp =  0.000017410105360026233  rzold =  0.000019322479691904642  alpha =  1.1098427776473565
 delta_qm =   0.341147E-03 delta_en =   0.785572E-01 tol =   0.100000E-03
 Iteration #         20
  pAp =  0.000027368304976330058  rzold =  0.00002028541075765572  alpha =  0.7412008443781922
 delta_qm =   0.323903E-03 delta_en =   0.708163E-01 tol =   0.100000E-03
 Iteration #         21
  pAp =  0.000009838445500954266  rzold =  0.000010702879186358536  alpha =  1.0878628321232684
 delta_qm =   0.172407E-03 delta_en =   0.200638E-01 tol =   0.100000E-03
 Iteration #         22
  pAp =  0.000015769096869607206  rzold =  0.0000072006933206923315  alpha =  0.45663320989363004
 delta_qm =   0.117084E-03 delta_en =   0.925332E-02 tol =   0.100000E-03
 Iteration #         23
  pAp =  0.0007223245206232096  rzold =  0.000028842849707422854  alpha =  0.03993059751389545
 delta_qm =   0.107024E-03 delta_en =   0.773147E-02 tol =   0.100000E-03
 Iteration #         24
  pAp =  0.000005438464114390016  rzold =  0.0000024241934561609456  alpha =  0.4457496464390748
 delta_qm =   0.720531E-04 delta_en =   0.350436E-02 tol =   0.100000E-03
 Iteration #         25
  pAp =  0.000005042621224970466  rzold =  0.0000011381637669183201  alpha =  0.22570875664471235
 delta_qm =   0.617199E-04 delta_en =   0.257131E-02 tol =   0.100000E-03
 Iteration #         26
  pAp =  0.0000012568128704092042  rzold =  5.916977417801442E-7  alpha =  0.4707922362280504
 delta_qm =   0.372996E-04 delta_en =   0.939103E-03 tol =   0.100000E-03
 Iteration #         27
  pAp =  4.7029314753057386E-7  rzold =  2.713300691244146E-7  alpha =  0.5769381726038766
 delta_qm =   0.253748E-04 delta_en =   0.434620E-03 tol =   0.100000E-03
 Iteration #         28
  pAp =  1.6098948695822858E-7  rzold =  1.2129971971638835E-7  alpha =  0.7534636081414534
 delta_qm =   0.131409E-04 delta_en =   0.116561E-03 tol =   0.100000E-03
 Iteration #         29
  pAp =  6.05630084475206E-8  rzold =  3.092373906671861E-8  alpha =  0.5106044078625127
 delta_qm =   0.713031E-05 delta_en =   0.343179E-04 tol =   0.100000E-03
 Charges are converged, exit!

%%%% ELECTRONS %%%%%%%%%%%%%%%%%%%%%%%%%%%%%%%%%%%%%%%%%%%%%%%%%%%%%%%%%%%%%%%%%
 number of electrons        =         89
 total electronic charge    =     89.0000000
 number of spin components  =  1

%%%% BOUNDARY %%%%%%%%%%%%%%%%%%%%%%%%%%%%%%%%%%%%%%%%%%%%%%%%%%%%%%%%%%%%%%%%%%
 boundary mode              = electronic           
 boundary is built as a function of a smooth density
 function type              =  2 
 using the modified SCCS function with parameters 
 rhomax                     =      0.0050000 
 rhomin                     =      0.0001000 

%%%% DIELECTRIC %%%%%%%%%%%%%%%%%%%%%%%%%%%%%%%%%%%%%%%%%%%%%%%%%%%%%%%%%%%%%%%%%
 dielectric build on homogeneous background
 environment bulk permitt.  =    100.0000000 
 dielectric flags
 need gradient              =  F 
 need factor depend. sqrt   =  T 
 need gradient of logarithm =  T 

%%%% COMPUTE ELECTROSTATIC POTENTIAL %%%%%%%%%%%%%%%%%%%%%%%%%%%%%%%%%%%%%%%%%%%
 Warning: bad guess with residual norm =   0.363956E+02, reset to no guess
 Iteration #          1
  pAp =  1271.9592391064884  rzold =  1269.8141094791222  alpha =  0.9983135232942896
 delta_qm =   0.815169E-01 delta_en =   0.448538E+04 tol =   0.100000E-03
 Iteration #          2
  pAp =  1258.211005239022  rzold =  41.627641784300124  alpha =  0.03308478594684692
 delta_qm =   0.764832E-01 delta_en =   0.394853E+04 tol =   0.100000E-03
 Iteration #          3
  pAp =  46.118529822890466  rzold =  5.2579607516057525  alpha =  0.11400972172785996
 delta_qm =   0.784683E-01 delta_en =   0.415617E+04 tol =   0.100000E-03
 Iteration #          4
  pAp =  -2.8747671303346696  rzold =  0.9577882269103355  alpha =  -0.3331707173091385
 delta_qm =   0.419355E-01 delta_en =   0.118705E+04 tol =   0.100000E-03
 Iteration #          5
  pAp =  1.9835006516956912  rzold =  -0.8284310133357599  alpha =  -0.4176610744380324
 delta_qm =   0.105489E-01 delta_en =   0.751130E+02 tol =   0.100000E-03
 Iteration #          6
  pAp =  0.6716394528010764  rzold =  0.2124453059365697  alpha =  0.3163085566974443
 delta_qm =   0.345500E-02 delta_en =   0.805747E+01 tol =   0.100000E-03
 Iteration #          7
  pAp =  0.03828223137328353  rzold =  0.014822086150215784  alpha =  0.3871792635514932
 delta_qm =   0.118221E-02 delta_en =   0.943387E+00 tol =   0.100000E-03
 Iteration #          8
  pAp =  0.0042542702977215905  rzold =  0.0018528855905380604  alpha =  0.43553546457318154
 delta_qm =   0.790885E-03 delta_en =   0.422212E+00 tol =   0.100000E-03
 Iteration #          9
  pAp =  0.0010877815014280884  rzold =  0.0003695375917035692  alpha =  0.33971674570529437
 delta_qm =   0.740252E-03 delta_en =   0.369882E+00 tol =   0.100000E-03
 Iteration #         10
  pAp =  0.00026421910670049853  rzold =  0.00013294303392268931  alpha =  0.50315450529997
 delta_qm =   0.602501E-03 delta_en =   0.245030E+00 tol =   0.100000E-03
 Iteration #         11
  pAp =  0.00008519115266300595  rzold =  0.00007983356886703657  alpha =  0.9371110305648452
 delta_qm =   0.283287E-03 delta_en =   0.541697E-01 tol =   0.100000E-03
 Iteration #         12
  pAp =  0.00010728708719590192  rzold =  0.00005808023510500125  alpha =  0.5413534528992204
 delta_qm =   0.134720E-03 delta_en =   0.122509E-01 tol =   0.100000E-03
 Iteration #         13
  pAp =  0.0009451971107412261  rzold =  0.000040671258090254786  alpha =  0.04302939315838606
 delta_qm =   0.100794E-03 delta_en =   0.685763E-02 tol =   0.100000E-03
 Iteration #         14
  pAp =  0.00006141404623760236  rzold =  0.000017697354372118205  alpha =  0.2881646049447648
 delta_qm =   0.849226E-04 delta_en =   0.486800E-02 tol =   0.100000E-03
 Iteration #         15
  pAp =  0.000004879059922853396  rzold =  0.000002500667219108935  alpha =  0.5125305404419961
 delta_qm =   0.699785E-04 delta_en =   0.330546E-02 tol =   0.100000E-03
 Iteration #         16
  pAp =  0.0000025873726564147873  rzold =  0.0000016234356786187235  alpha =  0.6274456347035257
 delta_qm =   0.782340E-04 delta_en =   0.413138E-02 tol =   0.100000E-03
 Iteration #         17
  pAp =  0.000001917716901536537  rzold =  0.0000018073354322095532  alpha =  0.9424412074386253
 delta_qm =   0.990168E-04 delta_en =   0.661792E-02 tol =   0.100000E-03
 Iteration #         18
  pAp =  0.000003898861636881988  rzold =  0.000005286198705397197  alpha =  1.3558313163492244
 delta_qm =   0.175348E-03 delta_en =   0.207543E-01 tol =   0.100000E-03
 Iteration #         19
  pAp =  0.000008583704161633288  rzold =  0.000011887933311081515  alpha =  1.3849421050899202
 delta_qm =   0.226694E-03 delta_en =   0.346882E-01 tol =   0.100000E-03
 Iteration #         20
  pAp =  0.00001873175827196661  rzold =  0.00001575109343124224  alpha =  0.8408763983899395
 delta_qm =   0.244134E-03 delta_en =   0.402309E-01 tol =   0.100000E-03
 Iteration #         21
  pAp =  0.000007897208302674366  rzold =  0.000010140883341988848  alpha =  1.2841098972347822
 delta_qm =   0.140212E-03 delta_en =   0.132700E-01 tol =   0.100000E-03
 Iteration #         22
  pAp =  0.000013610039745217593  rzold =  0.000009283323930184987  alpha =  0.6820938148580379
 delta_qm =   0.106210E-03 delta_en =   0.761439E-02 tol =   0.100000E-03
 Iteration #         23
  pAp =  0.00017647478389155486  rzold =  0.000008609207565195809  alpha =  0.04878434966939092
 delta_qm =   0.108908E-03 delta_en =   0.800618E-02 tol =   0.100000E-03
 Iteration #         24
  pAp =  0.00001687885365942794  rzold =  0.00000536554825816335  alpha =  0.31788582130199
 delta_qm =   0.805925E-04 delta_en =   0.438422E-02 tol =   0.100000E-03
 Iteration #         25
  pAp =  0.0000017934968995719716  rzold =  0.0000010982134180263748  alpha =  0.6123308148948959
 delta_qm =   0.499070E-04 delta_en =   0.168123E-02 tol =   0.100000E-03
 Iteration #         26
  pAp =  0.000004161349410202342  rzold =  0.000001044469568662141  alpha =  0.25099299907415235
 delta_qm =   0.313772E-04 delta_en =   0.664559E-03 tol =   0.100000E-03
 Iteration #         27
  pAp =  0.000001537353695076978  rzold =  5.833727959679837E-7  alpha =  0.37946556985298896
 delta_qm =   0.183891E-04 delta_en =   0.228258E-03 tol =   0.100000E-03
 Iteration #         28
  pAp =  2.6677693674834176E-7  rzold =  1.5402308012668254E-7  alpha =  0.5773478097620443
 delta_qm =   0.939557E-05 delta_en =   0.595868E-04 tol =   0.100000E-03
 Charges are converged, exit!

%%%% ELECTRONS %%%%%%%%%%%%%%%%%%%%%%%%%%%%%%%%%%%%%%%%%%%%%%%%%%%%%%%%%%%%%%%%%
 number of electrons        =         89
 total electronic charge    =     89.0000000
 number of spin components  =  1

%%%% BOUNDARY %%%%%%%%%%%%%%%%%%%%%%%%%%%%%%%%%%%%%%%%%%%%%%%%%%%%%%%%%%%%%%%%%%
 boundary mode              = electronic           
 boundary is built as a function of a smooth density
 function type              =  2 
 using the modified SCCS function with parameters 
 rhomax                     =      0.0050000 
 rhomin                     =      0.0001000 

%%%% DIELECTRIC %%%%%%%%%%%%%%%%%%%%%%%%%%%%%%%%%%%%%%%%%%%%%%%%%%%%%%%%%%%%%%%%%
 dielectric build on homogeneous background
 environment bulk permitt.  =    100.0000000 
 dielectric flags
 need gradient              =  F 
 need factor depend. sqrt   =  T 
 need gradient of logarithm =  T 

%%%% COMPUTE ELECTROSTATIC POTENTIAL %%%%%%%%%%%%%%%%%%%%%%%%%%%%%%%%%%%%%%%%%%%
 Warning: bad guess with residual norm =   0.243557E+02, reset to no guess
 Iteration #          1
  pAp =  1271.9473617523756  rzold =  1269.7420005454017  alpha =  0.9982661537157201
 delta_qm =   0.787120E-01 delta_en =   0.418202E+04 tol =   0.100000E-03
 Iteration #          2
  pAp =  1319.5234581862555  rzold =  43.487417855115  alpha =  0.0329569115162912
 delta_qm =   0.691962E-01 delta_en =   0.323198E+04 tol =   0.100000E-03
 Iteration #          3
  pAp =  47.434774490510925  rzold =  5.392267883619865  alpha =  0.11367752754255339
 delta_qm =   0.696802E-01 delta_en =   0.327735E+04 tol =   0.100000E-03
 Iteration #          4
  pAp =  -2.711699333317418  rzold =  0.9603075511821867  alpha =  -0.354134965991002
 delta_qm =   0.368742E-01 delta_en =   0.917802E+03 tol =   0.100000E-03
 Iteration #          5
  pAp =  2.2770663763855215  rzold =  -0.8958363992462416  alpha =  -0.39341690191229234
 delta_qm =   0.970967E-02 delta_en =   0.636375E+02 tol =   0.100000E-03
 Iteration #          6
  pAp =  0.6905548958619746  rzold =  0.21642257798336528  alpha =  0.3134038716983088
 delta_qm =   0.297106E-02 delta_en =   0.595835E+01 tol =   0.100000E-03
 Iteration #          7
  pAp =  0.03770789294385888  rzold =  0.01444063635027513  alpha =  0.3829605746408309
 delta_qm =   0.107777E-02 delta_en =   0.784075E+00 tol =   0.100000E-03
 Iteration #          8
  pAp =  0.004205415020138087  rzold =  0.001824796318787315  alpha =  0.4339158703835601
 delta_qm =   0.733074E-03 delta_en =   0.362743E+00 tol =   0.100000E-03
 Iteration #          9
  pAp =  0.0011618425553876807  rzold =  0.00038830501243107297  alpha =  0.3342148302542631
 delta_qm =   0.687003E-03 delta_en =   0.318582E+00 tol =   0.100000E-03
 Iteration #         10
  pAp =  0.0002696840658044711  rzold =  0.000137458346978149  alpha =  0.5097014040043818
 delta_qm =   0.563001E-03 delta_en =   0.213955E+00 tol =   0.100000E-03
 Iteration #         11
  pAp =  0.00008176327488259354  rzold =  0.00007990099578560206  alpha =  0.9772235260920555
 delta_qm =   0.266944E-03 delta_en =   0.481000E-01 tol =   0.100000E-03
 Iteration #         12
  pAp =  0.00010664597388563662  rzold =  0.0000590402739378429  alpha =  0.5536099656341045
 delta_qm =   0.112514E-03 delta_en =   0.854510E-02 tol =   0.100000E-03
 Iteration #         13
  pAp =  0.0007916981928596391  rzold =  0.000039021411495741335  alpha =  0.04928824121070019
 delta_qm =   0.143863E-03 delta_en =   0.139702E-01 tol =   0.100000E-03
 Iteration #         14
  pAp =  0.00010936556197151473  rzold =  0.0000240426438646211  alpha =  0.21983742808255516
 delta_qm =   0.109491E-03 delta_en =   0.809212E-02 tol =   0.100000E-03
 Iteration #         15
  pAp =  0.00001422387368173099  rzold =  0.000005607332963854328  alpha =  0.39421982290635316
 delta_qm =   0.103462E-03 delta_en =   0.722548E-02 tol =   0.100000E-03
 Iteration #         16
  pAp =  0.0000031964893920413906  rzold =  0.0000035561489210910455  alpha =  1.1125170413345136
 delta_qm =   0.122820E-03 delta_en =   0.101822E-01 tol =   0.100000E-03
 Iteration #         17
  pAp =  0.000001926137542276576  rzold =  0.0000055834082449329784  alpha =  2.8987588489312834
 delta_qm =   0.217645E-03 delta_en =   0.319743E-01 tol =   0.100000E-03
 Iteration #         18
  pAp =  0.000018450270699046106  rzold =  0.000026280954944278207  alpha =  1.4244211032435938
 delta_qm =   0.292338E-03 delta_en =   0.576867E-01 tol =   0.100000E-03
 Iteration #         19
  pAp =  0.000053770066192941545  rzold =  0.000037370779144889594  alpha =  0.6950108450823387
 delta_qm =   0.225790E-03 delta_en =   0.344124E-01 tol =   0.100000E-03
 Iteration #         20
  pAp =  0.0000389811656425463  rzold =  0.00001884969103184036  alpha =  0.48355893727474164
 delta_qm =   0.218613E-03 delta_en =   0.322592E-01 tol =   0.100000E-03
 Iteration #         21
  pAp =  0.000011530315320321721  rzold =  0.000009342655179005023  alpha =  0.8102688364939131
 delta_qm =   0.898019E-04 delta_en =   0.544346E-02 tol =   0.100000E-03
 Iteration #         22
  pAp =  0.000009790834399599373  rzold =  0.000005553108553621571  alpha =  0.56717418832544
 delta_qm =   0.697987E-04 delta_en =   0.328850E-02 tol =   0.100000E-03
 Iteration #         23
  pAp =  0.00005166453472900579  rzold =  0.000003537517773734752  alpha =  0.06847091127966162
 delta_qm =   0.685828E-04 delta_en =   0.317493E-02 tol =   0.100000E-03
 Iteration #         24
  pAp =  0.000022714933677321872  rzold =  0.000004128837061637806  alpha =  0.18176751560406065
 delta_qm =   0.525374E-04 delta_en =   0.186312E-02 tol =   0.100000E-03
 Iteration #         25
  pAp =  0.0000042117543558954525  rzold =  9.549998851755525E-7  alpha =  0.2267463399993355
 delta_qm =   0.442541E-04 delta_en =   0.132194E-02 tol =   0.100000E-03
 Iteration #         26
  pAp =  9.982666633562355E-7  rzold =  5.046966229143402E-7  alpha =  0.5055729510364679
 delta_qm =   0.239125E-04 delta_en =   0.385971E-03 tol =   0.100000E-03
 Iteration #         27
  pAp =  3.7314893724460833E-7  rzold =  2.151217717662431E-7  alpha =  0.5765037771639839
 delta_qm =   0.112750E-04 delta_en =   0.858096E-04 tol =   0.100000E-03
 Charges are converged, exit!

%%%% ELECTRONS %%%%%%%%%%%%%%%%%%%%%%%%%%%%%%%%%%%%%%%%%%%%%%%%%%%%%%%%%%%%%%%%%
 number of electrons        =         89
 total electronic charge    =     89.0000000
 number of spin components  =  1

%%%% BOUNDARY %%%%%%%%%%%%%%%%%%%%%%%%%%%%%%%%%%%%%%%%%%%%%%%%%%%%%%%%%%%%%%%%%%
 boundary mode              = electronic           
 boundary is built as a function of a smooth density
 function type              =  2 
 using the modified SCCS function with parameters 
 rhomax                     =      0.0050000 
 rhomin                     =      0.0001000 

%%%% DIELECTRIC %%%%%%%%%%%%%%%%%%%%%%%%%%%%%%%%%%%%%%%%%%%%%%%%%%%%%%%%%%%%%%%%%
 dielectric build on homogeneous background
 environment bulk permitt.  =    100.0000000 
 dielectric flags
 need gradient              =  F 
 need factor depend. sqrt   =  T 
 need gradient of logarithm =  T 

%%%% COMPUTE ELECTROSTATIC POTENTIAL %%%%%%%%%%%%%%%%%%%%%%%%%%%%%%%%%%%%%%%%%%%
 Warning: bad guess with residual norm =   0.373197E+00, reset to no guess
 Iteration #          1
  pAp =  1272.2379055056551  rzold =  1269.9182216190206  alpha =  0.9981766901641619
 delta_qm =   0.809143E-01 delta_en =   0.441931E+04 tol =   0.100000E-03
 Iteration #          2
  pAp =  1485.978135432962  rzold =  47.96997194831408  alpha =  0.032281748166057174
 delta_qm =   0.715271E-01 delta_en =   0.345338E+04 tol =   0.100000E-03
 Iteration #          3
  pAp =  44.55057176439088  rzold =  5.189588356089503  alpha =  0.11648758142847279
 delta_qm =   0.730770E-01 delta_en =   0.360467E+04 tol =   0.100000E-03
 Iteration #          4
  pAp =  -2.8171002646220598  rzold =  0.964884387045488  alpha =  -0.3425097782861258
 delta_qm =   0.387833E-01 delta_en =   0.101530E+04 tol =   0.100000E-03
 Iteration #          5
  pAp =  2.1262168542454845  rzold =  -0.8650046294230159  alpha =  -0.40682803717590416
 delta_qm =   0.990172E-02 delta_en =   0.661797E+02 tol =   0.100000E-03
 Iteration #          6
  pAp =  0.6635756049157906  rzold =  0.20937449246724343  alpha =  0.31552469818991247
 delta_qm =   0.312338E-02 delta_en =   0.658496E+01 tol =   0.100000E-03
 Iteration #          7
  pAp =  0.03704062127629353  rzold =  0.014274534537599295  alpha =  0.38537513804432805
 delta_qm =   0.110065E-02 delta_en =   0.817722E+00 tol =   0.100000E-03
 Iteration #          8
  pAp =  0.0041096336326808675  rzold =  0.0017993798547510957  alpha =  0.4378443471072367
 delta_qm =   0.746637E-03 delta_en =   0.376290E+00 tol =   0.100000E-03
 Iteration #          9
  pAp =  0.0010595266001500554  rzold =  0.0003629059695849614  alpha =  0.34251709162711425
 delta_qm =   0.701097E-03 delta_en =   0.331788E+00 tol =   0.100000E-03
 Iteration #         10
  pAp =  0.00026729820328193936  rzold =  0.00013447559845822344  alpha =  0.5030920403022013
 delta_qm =   0.576725E-03 delta_en =   0.224513E+00 tol =   0.100000E-03
 Iteration #         11
  pAp =  0.00008400349626486354  rzold =  0.00008176424997048042  alpha =  0.973343415524959
 delta_qm =   0.284602E-03 delta_en =   0.546737E-01 tol =   0.100000E-03
 Iteration #         12
  pAp =  0.00010644443717975187  rzold =  0.00006224062966261153  alpha =  0.5847241181566518
 delta_qm =   0.192371E-03 delta_en =   0.249795E-01 tol =   0.100000E-03
 Iteration #         13
  pAp =  0.0003934515048941606  rzold =  0.000028313287043975718  alpha =  0.07196131338115497
 delta_qm =   0.144614E-03 delta_en =   0.141164E-01 tol =   0.100000E-03
 Iteration #         14
  pAp =  0.0001884569081764297  rzold =  0.00003689777363116628  alpha =  0.19578891529210116
 delta_qm =   0.164366E-03 delta_en =   0.182358E-01 tol =   0.100000E-03
 Iteration #         15
  pAp =  0.000012626027224472231  rzold =  0.000007600879141352257  alpha =  0.6020008515916988
 delta_qm =   0.164955E-03 delta_en =   0.183669E-01 tol =   0.100000E-03
 Iteration #         16
  pAp =  0.000012988871888734205  rzold =  0.000012446252509556092  alpha =  0.9582242873879794
 delta_qm =   0.217635E-03 delta_en =   0.319714E-01 tol =   0.100000E-03
 Iteration #         17
  pAp =  0.000008751777599174402  rzold =  0.00002096007386417036  alpha =  2.3949504688222
 delta_qm =   0.346707E-03 delta_en =   0.811389E-01 tol =   0.100000E-03
 Iteration #         18
  pAp =  0.00009820406782560476  rzold =  0.00008510143473812977  alpha =  0.866577491364785
 delta_qm =   0.414382E-03 delta_en =   0.115906E+00 tol =   0.100000E-03
 Iteration #         19
  pAp =  0.00015819641773626915  rzold =  0.00008218220407787026  alpha =  0.5194947221553212
 delta_qm =   0.255949E-03 delta_en =   0.442193E-01 tol =   0.100000E-03
 Iteration #         20
  pAp =  0.00005163761321139632  rzold =  0.000026714984919774304  alpha =  0.5173551459554749
 delta_qm =   0.212371E-03 delta_en =   0.304434E-01 tol =   0.100000E-03
 Iteration #         21
  pAp =  0.000008297512013374118  rzold =  0.000007382493818799661  alpha =  0.8897237879138217
 delta_qm =   0.935200E-04 delta_en =   0.590354E-02 tol =   0.100000E-03
 Iteration #         22
  pAp =  0.000007585631837329324  rzold =  0.000004348879170587079  alpha =  0.5733048035874874
 delta_qm =   0.577770E-04 delta_en =   0.225327E-02 tol =   0.100000E-03
 Iteration #         23
  pAp =  0.000003397634168245263  rzold =  0.00000157206086726956  alpha =  0.46269280017320524
 delta_qm =   0.452550E-04 delta_en =   0.138241E-02 tol =   0.100000E-03
 Iteration #         24
  pAp =  0.000012891452425077156  rzold =  8.356046468707474E-7  alpha =  0.06481850293651037
 delta_qm =   0.418270E-04 delta_en =   0.118091E-02 tol =   0.100000E-03
 Iteration #         25
  pAp =  0.000005441963062192955  rzold =  8.420974613452311E-7  alpha =  0.15474148790085504
 delta_qm =   0.336434E-04 delta_en =   0.764017E-03 tol =   0.100000E-03
 Iteration #         26
  pAp =  0.0000013717468793506857  rzold =  4.3826564802076994E-7  alpha =  0.3194945471486856
 delta_qm =   0.213106E-04 delta_en =   0.306545E-03 tol =   0.100000E-03
 Iteration #         27
  pAp =  2.788726916174951E-7  rzold =  1.5787747063397927E-7  alpha =  0.5661273956882296
 delta_qm =   0.101516E-04 delta_en =   0.695621E-04 tol =   0.100000E-03
 Charges are converged, exit!

%%%% ELECTRONS %%%%%%%%%%%%%%%%%%%%%%%%%%%%%%%%%%%%%%%%%%%%%%%%%%%%%%%%%%%%%%%%%
 number of electrons        =         89
 total electronic charge    =     89.0000000
 number of spin components  =  1

%%%% BOUNDARY %%%%%%%%%%%%%%%%%%%%%%%%%%%%%%%%%%%%%%%%%%%%%%%%%%%%%%%%%%%%%%%%%%
 boundary mode              = electronic           
 boundary is built as a function of a smooth density
 function type              =  2 
 using the modified SCCS function with parameters 
 rhomax                     =      0.0050000 
 rhomin                     =      0.0001000 

%%%% DIELECTRIC %%%%%%%%%%%%%%%%%%%%%%%%%%%%%%%%%%%%%%%%%%%%%%%%%%%%%%%%%%%%%%%%%
 dielectric build on homogeneous background
 environment bulk permitt.  =    100.0000000 
 dielectric flags
 need gradient              =  F 
 need factor depend. sqrt   =  T 
 need gradient of logarithm =  T 
