
     Program PWSCF v.6.3MaX starts on 21Apr2019 at 23:36:25 

     This program is part of the open-source Quantum ESPRESSO suite
     for quantum simulation of materials; please cite
         "P. Giannozzi et al., J. Phys.:Condens. Matter 21 395502 (2009);
         "P. Giannozzi et al., J. Phys.:Condens. Matter 29 465901 (2017);
          URL http://www.quantum-espresso.org", 
     in publications or presentations arising from this work. More details at
     http://www.quantum-espresso.org/quote

     Parallel version (MPI), running on     1 processors

     MPI processes distributed on     1 nodes
     Reading input from neutral.in

     Current dimensions of program PWSCF are:
     Max number of different atomic species (ntypx) = 10
     Max number of k-points (npk) =  40000
     Max angular momentum in pseudopotentials (lmaxx) =  3
               file C.pbe-rrkjus.UPF: wavefunction(s)  2S 2P renormalized
               file O.pbe-rrkjus.UPF: wavefunction(s)  2S renormalized

     gamma-point specific algorithms are used

     Subspace diagonalization in iterative solution of the eigenvalue problem:
     a serial algorithm will be used

 
     G-vector sticks info
     --------------------
     sticks:   dense  smooth     PW     G-vecs:    dense   smooth      PW
     Sum        2357    1099    269               366833   116965   14571
 


     bravais-lattice index     =            8
     lattice parameter (alat)  =      10.6881  a.u.
     unit-cell volume          =    4181.1215 (a.u.)^3
     number of atoms/cell      =           10
     number of atomic types    =            3
     number of electrons       =        90.00
     number of Kohn-Sham states=           80
     kinetic-energy cutoff     =      35.0000  Ry
     charge density cutoff     =     300.0000  Ry
     convergence threshold     =      5.0E-03
     mixing beta               =       0.7000
     number of iterations used =            8  plain     mixing
     Exchange-correlation      = PBE ( 1  4  3  4 0 0)
 

     Environ Module
     ==============

     Plese cite
         O. Andreussi, I. Dabo and N. Marzari, J. Chem. Phys. 136, 064102 (2012)         
     in publications or presentations arising from this work.

     compensation onset threshold      =               0.1000E+03 
     static permittivity               =                   100.00 
     epsilon calculation mode          =                     full 

     Electrostatic Setup
     -------------------
     electrostatic problem to solve    = generalized              
     numerical solver adopted          = cg                       
     type of auxiliary density adopted = none                     
     type of core tool for poisson     = fft                      
     type of core tool for s(r) deriv  = analytic                 



     celldm(1)=  10.688100  celldm(2)=   0.866025  celldm(3)=   3.954220
     celldm(4)=   0.000000  celldm(5)=   0.000000  celldm(6)=   0.000000

     crystal axes: (cart. coord. in units of alat)
               a(1) = (   1.000000   0.000000   0.000000 )  
               a(2) = (   0.000000   0.866025   0.000000 )  
               a(3) = (   0.000000   0.000000   3.954220 )  

     reciprocal axes: (cart. coord. in units 2 pi/alat)
               b(1) = (  1.000000  0.000000  0.000000 )  
               b(2) = (  0.000000  1.154701  0.000000 )  
               b(3) = (  0.000000  0.000000  0.252894 )  


     PseudoPot. # 1 for C  read from file:
     /home/fnattino/Programs/quantumespresso/q-e-qe-6.3-develop/Environ/tests/../..//pseudo/C.pbe-rrkjus.UPF
     MD5 check sum: c9ac5a99bc85b198593446162950cd17
     Pseudo is Ultrasoft, Zval =  4.0
     Generated by new atomic code, or converted to UPF format
     Using radial grid of  627 points,  4 beta functions with: 
                l(1) =   0
                l(2) =   0
                l(3) =   1
                l(4) =   1
     Q(r) pseudized with 0 coefficients 


     PseudoPot. # 2 for O  read from file:
     /home/fnattino/Programs/quantumespresso/q-e-qe-6.3-develop/Environ/tests/../..//pseudo/O.pbe-rrkjus.UPF
     MD5 check sum: fadcf19ee70a498d3030e2e79cf929a4
     Pseudo is Ultrasoft, Zval =  6.0
     Generated by new atomic code, or converted to UPF format
     Using radial grid of 1269 points,  4 beta functions with: 
                l(1) =   0
                l(2) =   0
                l(3) =   1
                l(4) =   1
     Q(r) pseudized with 0 coefficients 


     PseudoPot. # 3 for Pt read from file:
     /home/fnattino/Programs/quantumespresso/q-e-qe-6.3-develop/Environ/tests/../..//pseudo/Pt.pbe-n-rrkjus_psl.0.1.UPF
     MD5 check sum: 957548fe13c2a9232dd96292d902c87c
     Pseudo is Ultrasoft + core correction, Zval = 10.0
     Generated using "atomic" code by A. Dal Corso v.5.0.2 svn rev. 9415
     Using radial grid of 1277 points,  6 beta functions with: 
                l(1) =   0
                l(2) =   0
                l(3) =   1
                l(4) =   1
                l(5) =   2
                l(6) =   2
     Q(r) pseudized with 0 coefficients 


     atomic species   valence    mass     pseudopotential
        C              4.00     1.00000     C ( 1.00)
        O              6.00     1.00000     O ( 1.00)
        Pt            10.00     1.00000     Pt( 1.00)

     No symmetry found



   Cartesian axes

     site n.     atom                  positions (alat units)
         1           C   tau(   1) = (   0.4991611   0.4347567   1.2070461  )
         2           O   tau(   2) = (   0.4991542   0.4322212   1.4109013  )
         3           Pt  tau(   3) = (   0.7542339   0.0091745   0.8413229  )
         4           Pt  tau(   4) = (   0.2441023   0.0091745   0.8413226  )
         5           Pt  tau(   5) = (   0.0000034   0.4416918   0.8391348  )
         6           Pt  tau(   6) = (   0.4991682   0.4417635   0.8776299  )
         7           Pt  tau(   7) = (   0.0000038   0.7300598   0.4308181  )
         8           Pt  tau(   8) = (   0.4991683   0.7202168   0.4447460  )
         9           Pt  tau(   9) = (   0.2524172   0.2949237   0.4386572  )
        10           Pt  tau(  10) = (   0.7459196   0.2949237   0.4386575  )

     number of k points=     1  Marzari-Vanderbilt smearing, width (Ry)=  0.0300
                       cart. coord. in units 2pi/alat
        k(    1) = (   0.0000000   0.0000000   0.0000000), wk =   2.0000000

     Dense  grid:   183417 G-vectors     FFT dimensions: (  60,  54, 240)

     Smooth grid:    58483 G-vectors     FFT dimensions: (  45,  36, 160)

     Estimated max dynamical RAM per process >     774.12 MB

     Initial potential from superposition of free atoms
     Check: negative starting charge=   -0.003086

     starting charge   89.99859, renormalised to   90.00000

     negative rho (up, down):  3.086E-03 0.000E+00
     Starting wfcs are   80 randomized atomic wfcs

     total cpu time spent up to now is        7.6 secs

     Self-consistent Calculation

     iteration #  1     ecut=    35.00 Ry     beta= 0.70
     Davidson diagonalization with overlap
     ethr =  1.00E-02,  avg # of iterations =  8.0

     negative rho (up, down):  2.238E-03 0.000E+00

     add environment contribution to local potential
     polarization accuracy = 7.6E-06, # of iterations =  21

     total cpu time spent up to now is       12.6 secs

     total energy              =    -623.07809637 Ry
     Harris-Foulkes estimate   =    -624.45781295 Ry
     estimated scf accuracy    <       1.80056025 Ry
     electrostatic embedding   =       0.00000000 Ry
     correction to one-el term =       0.00000000 Ry

     iteration #  2     ecut=    35.00 Ry     beta= 0.70
     Davidson diagonalization with overlap
     ethr =  2.00E-03,  avg # of iterations =  6.0

     negative rho (up, down):  1.506E-02 0.000E+00

     add environment contribution to local potential
     polarization accuracy = 9.8E-06, # of iterations =  33

     total cpu time spent up to now is       18.2 secs

     total energy              =    -621.32510924 Ry
     Harris-Foulkes estimate   =    -657.02724274 Ry
     estimated scf accuracy    <      17.56867887 Ry
     electrostatic embedding   =      -0.02250397 Ry
     correction to one-el term =      30.87764253 Ry

     iteration #  3     ecut=    35.00 Ry     beta= 0.70
     Davidson diagonalization with overlap
     ethr =  2.00E-03,  avg # of iterations =  6.0

     negative rho (up, down):  9.979E-03 0.000E+00

     add environment contribution to local potential
     polarization accuracy = 7.4E-06, # of iterations =  26

     total cpu time spent up to now is       23.3 secs

     total energy              =    -623.63296287 Ry
     Harris-Foulkes estimate   =    -652.79466387 Ry
     estimated scf accuracy    <       5.73548425 Ry
     electrostatic embedding   =      -0.01526034 Ry
     correction to one-el term =      28.30819087 Ry

     iteration #  4     ecut=    35.00 Ry     beta= 0.70
     Davidson diagonalization with overlap
     ethr =  2.00E-03,  avg # of iterations =  1.0

     negative rho (up, down):  7.436E-03 0.000E+00

     add environment contribution to local potential
     polarization accuracy = 4.1E-06, # of iterations =  24

     total cpu time spent up to now is       27.8 secs

     total energy              =    -623.70474719 Ry
     Harris-Foulkes estimate   =    -652.28586355 Ry
     estimated scf accuracy    <       3.95278947 Ry
     electrostatic embedding   =      -0.03674774 Ry
     correction to one-el term =      27.97653188 Ry

     iteration #  5     ecut=    35.00 Ry     beta= 0.70
     Davidson diagonalization with overlap
     ethr =  2.00E-03,  avg # of iterations =  1.0

     negative rho (up, down):  7.149E-03 0.000E+00

     add environment contribution to local potential
     polarization accuracy = 6.6E-06, # of iterations =  25

     total cpu time spent up to now is       32.3 secs

     total energy              =    -624.03578065 Ry
     Harris-Foulkes estimate   =    -652.27365997 Ry
     estimated scf accuracy    <       0.82533249 Ry
     electrostatic embedding   =      -0.01259699 Ry
     correction to one-el term =      28.06926959 Ry

     iteration #  6     ecut=    35.00 Ry     beta= 0.70
     Davidson diagonalization with overlap
     ethr =  9.17E-04,  avg # of iterations =  1.0

     negative rho (up, down):  5.540E-03 0.000E+00

     add environment contribution to local potential
     polarization accuracy = 6.0E-06, # of iterations =  23

     total cpu time spent up to now is       36.8 secs

     total energy              =    -624.12617173 Ry
     Harris-Foulkes estimate   =    -651.55708353 Ry
     estimated scf accuracy    <       0.20917629 Ry
     electrostatic embedding   =      -0.01130587 Ry
     correction to one-el term =      27.41201797 Ry

     iteration #  7     ecut=    35.00 Ry     beta= 0.70
     Davidson diagonalization with overlap
     ethr =  2.32E-04,  avg # of iterations =  6.0

     negative rho (up, down):  4.389E-03 0.000E+00

     add environment contribution to local potential
     polarization accuracy = 2.9E-06, # of iterations =  23

     total cpu time spent up to now is       41.4 secs

     total energy              =    -624.13191128 Ry
     Harris-Foulkes estimate   =    -651.54183472 Ry
     estimated scf accuracy    <       0.09364008 Ry
     electrostatic embedding   =      -0.01085471 Ry
     correction to one-el term =      27.40346612 Ry

     iteration #  8     ecut=    35.00 Ry     beta= 0.70
     Davidson diagonalization with overlap
     ethr =  1.04E-04,  avg # of iterations =  1.0

     negative rho (up, down):  3.348E-03 0.000E+00

     add environment contribution to local potential
     polarization accuracy = 2.8E-06, # of iterations =  23

     total cpu time spent up to now is       45.8 secs

     total energy              =    -624.13555338 Ry
     Harris-Foulkes estimate   =    -651.41546711 Ry
     estimated scf accuracy    <       0.03354568 Ry
     electrostatic embedding   =      -0.01123556 Ry
     correction to one-el term =      27.28339148 Ry

     iteration #  9     ecut=    35.00 Ry     beta= 0.70
     Davidson diagonalization with overlap
     ethr =  3.73E-05,  avg # of iterations =  1.0

     negative rho (up, down):  3.202E-03 0.000E+00

     add environment contribution to local potential
     polarization accuracy = 1.8E-06, # of iterations =  23

     total cpu time spent up to now is       50.2 secs

     total energy              =    -624.13874428 Ry
     Harris-Foulkes estimate   =    -651.31224331 Ry
     estimated scf accuracy    <       0.01553456 Ry
     electrostatic embedding   =      -0.01101498 Ry
     correction to one-el term =      27.18129580 Ry

     iteration # 10     ecut=    35.00 Ry     beta= 0.70
     Davidson diagonalization with overlap
     ethr =  1.73E-05,  avg # of iterations =  4.0

     negative rho (up, down):  3.105E-03 0.000E+00

     add environment contribution to local potential
     polarization accuracy = 1.6E-06, # of iterations =  23

     total cpu time spent up to now is       54.7 secs

     total energy              =    -624.13945601 Ry
     Harris-Foulkes estimate   =    -651.05316385 Ry
     estimated scf accuracy    <       0.00830123 Ry
     electrostatic embedding   =      -0.01069726 Ry
     correction to one-el term =      26.92286437 Ry

     iteration # 11     ecut=    35.00 Ry     beta= 0.70
     Davidson diagonalization with overlap
     ethr =  9.22E-06,  avg # of iterations =  1.0

     negative rho (up, down):  3.101E-03 0.000E+00

     add environment contribution to local potential
     polarization accuracy = 5.5E-06, # of iterations =  23

     total cpu time spent up to now is       59.2 secs

     total energy              =    -624.13975657 Ry
     Harris-Foulkes estimate   =    -651.11566921 Ry
     estimated scf accuracy    <       0.00521552 Ry
     electrostatic embedding   =      -0.01046858 Ry
     correction to one-el term =      26.98518904 Ry

     iteration # 12     ecut=    35.00 Ry     beta= 0.70
     Davidson diagonalization with overlap
     ethr =  5.80E-06,  avg # of iterations =  1.0

     negative rho (up, down):  3.074E-03 0.000E+00

     the potential shift due to the Gaussian-smeared nuclei is    -0.4600 ev

     total cpu time spent up to now is       61.8 secs

     End of self-consistent calculation

          k = 0.0000 0.0000 0.0000 (  7286 PWs)   bands (ev):

   -28.9154 -15.1207 -13.3592 -12.4877 -11.8381 -11.7458 -11.7084 -11.1342
   -10.9713 -10.1342  -9.9910  -9.8942  -9.6403  -9.6089  -9.5299  -9.3761
    -8.7369  -8.6857  -8.6515  -8.4610  -8.3758  -8.3208  -8.2664  -8.2366
    -8.2244  -8.0633  -8.0123  -7.9340  -7.8400  -7.5768  -7.4750  -6.7377
    -6.5962  -6.4787  -6.1611  -6.0710  -6.0278  -5.8646  -5.7327  -5.5582
    -5.3897  -5.3514  -5.1594  -5.1442  -5.0949  -5.0886  -4.9047  -3.8168
    -3.4359  -3.3550  -2.9047  -2.3195  -2.1500  -1.1888  -0.8543  -0.7943
    -0.3373  -0.0579   0.5858   0.5994   0.9102   1.2734   2.1855   2.4039
     2.4341   2.7615   3.0205   3.2925   3.5287   3.5774   4.0394   4.2170
     4.4823   4.6101   4.9398   5.1158   5.3125   5.3722   5.4498   5.5958

     the Fermi energy is    -4.9914 ev

!    total energy              =    -624.13629058 Ry
     Harris-Foulkes estimate   =    -651.08502171 Ry
     estimated scf accuracy    <       0.00464538 Ry

     The total energy is the sum of the following terms:

     one-electron contribution =   -3994.31656399 Ry
     hartree contribution      =    2033.30394133 Ry
     xc contribution           =    -263.26732212 Ry
     ewald contribution        =    1573.20467954 Ry
     smearing contrib. (-TS)   =      -0.00532831 Ry
     electrostatic embedding   =      -0.01021199 Ry
     correction to one-el term =      26.95451496 Ry

     WARNING: you are using the parabolic pbc correction;
              the potential shift above must be added to 
              band and Fermi energies.

     convergence has been achieved in  12 iterations

     negative rho (up, down):  3.074E-03 0.000E+00

     Forces acting on atoms (cartesian axes, Ry/au):

     atom    1 type  1   force =     0.00006610   -0.00635790    0.04888271
     atom    2 type  2   force =    -0.00016569    0.00169480    0.01377021
     atom    3 type  3   force =     0.00208564    0.00990440    0.04087802
     atom    4 type  3   force =    -0.00109755    0.01016193    0.04121905
     atom    5 type  3   force =    -0.00146274    0.01598069   -0.00094248
     atom    6 type  3   force =     0.00050502    0.00948916    0.05469074
     atom    7 type  3   force =    -0.00139854   -0.01226341   -0.05564496
     atom    8 type  3   force =     0.00027362   -0.01066430   -0.04283593
     atom    9 type  3   force =     0.00982173   -0.00918718   -0.05014183
     atom   10 type  3   force =    -0.00862760   -0.00875820   -0.04987553

     Total force =     0.141670     Total SCF correction =     0.310452
     SCF correction compared to forces is large: reduce conv_thr to get better values

     Writing output data file pwscf.save/
 
     init_run     :      6.29s CPU      6.71s WALL (       1 calls)
     electrons    :     47.99s CPU     54.16s WALL (       1 calls)
     forces       :      3.40s CPU      3.68s WALL (       1 calls)

     Called by init_run:
     wfcinit      :      0.28s CPU      0.30s WALL (       1 calls)
     potinit      :      1.49s CPU      1.54s WALL (       1 calls)
     hinit0       :      4.12s CPU      4.16s WALL (       1 calls)

     Called by electrons:
     c_bands      :      9.34s CPU      9.76s WALL (      12 calls)
     sum_band     :      7.87s CPU     10.38s WALL (      12 calls)
     v_of_rho     :      3.12s CPU      3.27s WALL (      13 calls)
     newd         :      5.16s CPU      8.06s WALL (      13 calls)
     mix_rho      :      0.28s CPU      0.29s WALL (      12 calls)

     Called by c_bands:
     init_us_2    :      0.10s CPU      0.12s WALL (      25 calls)
     regterg      :      8.58s CPU      8.98s WALL (      12 calls)

     Called by sum_band:
     sum_band:bec :      0.00s CPU      0.00s WALL (      12 calls)
     addusdens    :      6.20s CPU      8.65s WALL (      12 calls)

     Called by *egterg:
     h_psi        :      6.78s CPU      6.83s WALL (      50 calls)
     s_psi        :      0.35s CPU      0.32s WALL (      50 calls)
     g_psi        :      0.03s CPU      0.06s WALL (      37 calls)
     rdiaghg      :      0.36s CPU      0.36s WALL (      49 calls)

     Called by h_psi:
     h_psi:pot    :      6.77s CPU      6.79s WALL (      50 calls)
     h_psi:calbec :      0.35s CPU      0.31s WALL (      50 calls)
     vloc_psi     :      6.13s CPU      6.18s WALL (      50 calls)
     add_vuspsi   :      0.29s CPU      0.30s WALL (      50 calls)

     General routines
     calbec       :      0.50s CPU      0.46s WALL (      66 calls)
     fft          :      5.57s CPU      5.72s WALL (     898 calls)
     ffts         :      0.04s CPU      0.05s WALL (      25 calls)
     fftw         :      6.28s CPU      6.31s WALL (    2810 calls)
     interpolate  :      0.10s CPU      0.17s WALL (      13 calls)
 
     Parallel routines
 
     Environ routines
     calc_eelect  :      0.01s CPU      0.01s WALL (      24 calls)
     calc_velect  :     19.09s CPU     19.18s WALL (      22 calls)
     dielectric   :      0.31s CPU      0.30s WALL (      15 calls)
     calc_felect  :      0.08s CPU      0.08s WALL (       1 calls)
 
     PWSCF        :    58.57s CPU     1m 5.47s WALL

 
   This run was terminated on:  23:37:30  21Apr2019            

=------------------------------------------------------------------------------=
   JOB DONE.
=------------------------------------------------------------------------------=

%%%% IONS %%%%%%%%%%%%%%%%%%%%%%%%%%%%%%%%%%%%%%%%%%%%%%%%%%%%%%%%%%%%%%%%%%%%%%
 number of ions             =         10
 ionic center of charge     =      0.3882415     0.3750182     0.7201831
 total ionic charge         =    -90.0000000
 ionic dipole               =      0.0000000     0.0000000     0.0000000
 ionic quadrupole (pc)      =   -730.5101255  -614.6110457  -876.7220256
 ionic quadrupole (gauss)   =   -741.7601255  -625.8610457  -887.9720256
 ion   1 type =  1 coordinates =      5.3350841     4.6467234    12.9010299
 ion   2 type =  2 coordinates =      5.3350096     4.6196233    15.0798543
 ion   3 type =  3 coordinates =      8.0613271     0.0980580     8.9921429
 ion   4 type =  3 coordinates =      2.6089894     0.0980583     8.9921406
 ion   5 type =  3 coordinates =      0.0000366     4.7208463     8.9687569
 ion   6 type =  3 coordinates =      5.3351596     4.7216127     9.3801964
 ion   7 type =  3 coordinates =      0.0000411     7.8029520     4.6046265
 ion   8 type =  3 coordinates =      5.3351612     7.6977491     4.7534894
 ion   9 type =  3 coordinates =      2.6978606     3.1521739     4.6884123
 ion  10 type =  3 coordinates =      7.9724637     3.1521745     4.6884152

%%%% SYSTEM %%%%%%%%%%%%%%%%%%%%%%%%%%%%%%%%%%%%%%%%%%%%%%%%%%%%%%%%%%%%%%%%%%%%
 system is built from all present ionic types
 system defined dimension   =  0 
 system defined axis        =  3 
 system center              =      0.3882415     0.3750182     0.7201831 
 system width               =      0.7019013 

%%%% ELECTRONS %%%%%%%%%%%%%%%%%%%%%%%%%%%%%%%%%%%%%%%%%%%%%%%%%%%%%%%%%%%%%%%%%
 number of electrons        =         90
 total electronic charge    =     90.0000000
 number of spin components  =  1

%%%% BOUNDARY %%%%%%%%%%%%%%%%%%%%%%%%%%%%%%%%%%%%%%%%%%%%%%%%%%%%%%%%%%%%%%%%%%
 boundary label             = solvent              
 boundary mode              = full                 
 boundary is built as a function of a smooth density
 function type              =  2 
 using the modified SCCS function with parameters 
 rhomax                     =      0.0050000 
 rhomin                     =      0.0001000 
 volume of the QM region    =   1612.5057880 
 surface of the QM region   =    255.1041428 

%%%% DIELECTRIC %%%%%%%%%%%%%%%%%%%%%%%%%%%%%%%%%%%%%%%%%%%%%%%%%%%%%%%%%%%%%%%%%
 dielectric build on homogeneous background
 environment bulk permitt.  =    100.0000000 
 dielectric flags
 need gradient              =  F 
 need factor depend. sqrt   =  T 
 total dielectric charge    =      0.0000000

%%%% DENSITY %%%%%%%%%%%%%%%%%%%%%%%%%%%%%%%%%%%%%%%%%%%%%%%%%%%%%%%%%%%%%%%%%%%
 density label              = vreference                                                                      
 integral of density        =      0.000000000    

%%%% DENSITY %%%%%%%%%%%%%%%%%%%%%%%%%%%%%%%%%%%%%%%%%%%%%%%%%%%%%%%%%%%%%%%%%%%
 density label              = velectrostatic                                                                  
 integral of density        =      0.000000000    

%%%% CHARGES %%%%%%%%%%%%%%%%%%%%%%%%%%%%%%%%%%%%%%%%%%%%%%%%%%%%%%%%%%%%%%%%%%%
 total number of charges    =        100
 total charge               =     -0.0000000

%%%% DENSITY %%%%%%%%%%%%%%%%%%%%%%%%%%%%%%%%%%%%%%%%%%%%%%%%%%%%%%%%%%%%%%%%%%%
 density label              = vsoftcavity                                                                     
 integral of density        =      0.000000000    

%%%% ELECTRONS %%%%%%%%%%%%%%%%%%%%%%%%%%%%%%%%%%%%%%%%%%%%%%%%%%%%%%%%%%%%%%%%%
 number of electrons        =         90
 total electronic charge    =     90.0000000
 number of spin components  =  1

%%%% BOUNDARY %%%%%%%%%%%%%%%%%%%%%%%%%%%%%%%%%%%%%%%%%%%%%%%%%%%%%%%%%%%%%%%%%%
 boundary label             = solvent              
 boundary mode              = full                 
 boundary is built as a function of a smooth density
 function type              =  2 
 using the modified SCCS function with parameters 
 rhomax                     =      0.0050000 
 rhomin                     =      0.0001000 
 volume of the QM region    =   1646.7576126 
 surface of the QM region   =    250.7132532 

%%%% DIELECTRIC %%%%%%%%%%%%%%%%%%%%%%%%%%%%%%%%%%%%%%%%%%%%%%%%%%%%%%%%%%%%%%%%%
 dielectric build on homogeneous background
 environment bulk permitt.  =    100.0000000 
 dielectric flags
 need gradient              =  F 
 need factor depend. sqrt   =  T 
 total dielectric charge    =      0.0000000

%%%% DENSITY %%%%%%%%%%%%%%%%%%%%%%%%%%%%%%%%%%%%%%%%%%%%%%%%%%%%%%%%%%%%%%%%%%%
 density label              = vreference                                                                      
 integral of density        =    -0.1101784298E-11

%%%% COMPUTE ELECTROSTATIC POTENTIAL %%%%%%%%%%%%%%%%%%%%%%%%%%%%%%%%%%%%%%%%%%%
 Iteration #          1
  pAp =    1284.13153213862       rzold =    1283.80107426741       alpha = 
  0.999742660418392     
 delta_qm =   0.228453E-01 delta_en =   0.405836E+03 tol =   0.100000E-04
 Iteration #          2
  pAp =    29.4389278006061       rzold =    2.19413991450758       alpha = 
  7.453192349153427E-002
 delta_qm =   0.250313E-01 delta_en =   0.487218E+03 tol =   0.100000E-04
 Iteration #          3
  pAp =    19.0737770695384       rzold =    1.42878867938063       alpha = 
  7.490853406599100E-002
 delta_qm =   0.132759E-01 delta_en =   0.137052E+03 tol =   0.100000E-04
 Iteration #          4
  pAp =   3.922377454663138E-002  rzold =   3.199446388901241E-002  alpha = 
  0.815690592219156     
 delta_qm =   0.183106E-01 delta_en =   0.260712E+03 tol =   0.100000E-04
 Iteration #          5
  pAp =   0.221716726566117       rzold =   6.596796005408458E-002  alpha = 
  0.297532626770099     
 delta_qm =   0.132454E-01 delta_en =   0.136423E+03 tol =   0.100000E-04
 Iteration #          6
  pAp =  -0.865002289045466       rzold =  -0.203920601063215       alpha = 
  0.235745735757812     
 delta_qm =   0.285877E-02 delta_en =   0.635498E+01 tol =   0.100000E-04
 Iteration #          7
  pAp =   1.785432092913050E-002  rzold =   7.613814835719699E-003  alpha = 
  0.426441020408525     
 delta_qm =   0.733859E-03 delta_en =   0.418776E+00 tol =   0.100000E-04
 Iteration #          8
  pAp =   1.463441234537575E-003  rzold =   5.895365417952918E-004  alpha = 
  0.402842647782558     
 delta_qm =   0.353341E-03 delta_en =   0.970835E-01 tol =   0.100000E-04
 Iteration #          9
  pAp =   2.948212037564914E-004  rzold =   1.035819752229644E-004  alpha = 
  0.351338281993171     
 delta_qm =   0.299355E-03 delta_en =   0.696836E-01 tol =   0.100000E-04
 Iteration #         10
  pAp =   3.953674862001232E-005  rzold =   1.908203731133276E-005  alpha = 
  0.482640530073179     
 delta_qm =   0.263148E-03 delta_en =   0.538462E-01 tol =   0.100000E-04
 Iteration #         11
  pAp =   1.433380413176384E-005  rzold =   1.084720679675680E-005  alpha = 
  0.756757012796016     
 delta_qm =   0.225859E-03 delta_en =   0.396673E-01 tol =   0.100000E-04
 Iteration #         12
  pAp =   8.088672778770077E-006  rzold =   1.193526453406825E-005  alpha = 
   1.47555289483265     
 delta_qm =   0.277988E-03 delta_en =   0.600908E-01 tol =   0.100000E-04
 Iteration #         13
  pAp =   2.857003175395738E-005  rzold =   1.742658265883894E-005  alpha = 
  0.609960213167250     
 delta_qm =   0.319925E-03 delta_en =   0.795889E-01 tol =   0.100000E-04
 Iteration #         14
  pAp =   7.410757594713697E-005  rzold =   2.068112214126507E-005  alpha = 
  0.279068932925528     
 delta_qm =   0.275170E-03 delta_en =   0.588787E-01 tol =   0.100000E-04
 Iteration #         15
  pAp =   9.868345031870168E-004  rzold =   8.571867542296266E-005  alpha = 
  8.686226023323179E-002
 delta_qm =   0.284893E-03 delta_en =   0.631132E-01 tol =   0.100000E-04
 Iteration #         16
  pAp =   1.510756186006353E-005  rzold =   1.569150095557495E-005  alpha = 
   1.03865210686676     
 delta_qm =   0.189763E-03 delta_en =   0.280014E-01 tol =   0.100000E-04
 Iteration #         17
  pAp =   1.599187126300132E-005  rzold =   1.572409991162708E-005  alpha = 
  0.983255783705954     
 delta_qm =   0.980099E-04 delta_en =   0.746958E-02 tol =   0.100000E-04
 Iteration #         18
  pAp =   7.570153544281833E-006  rzold =   4.703714080135584E-006  alpha = 
  0.621349891071703     
 delta_qm =   0.427467E-04 delta_en =   0.142089E-02 tol =   0.100000E-04
 Iteration #         19
  pAp =   6.177542632530837E-007  rzold =   3.833232979653874E-007  alpha = 
  0.620510971380130     
 delta_qm =   0.187589E-04 delta_en =   0.273633E-03 tol =   0.100000E-04
 Iteration #         20
  pAp =   8.196168682570905E-008  rzold =   4.799510362908301E-008  alpha = 
  0.585579744486522     
 delta_qm =   0.905244E-05 delta_en =   0.637218E-04 tol =   0.100000E-04
 Iteration #         21
  pAp =   1.957834932426758E-008  rzold =   1.388911021446651E-008  alpha = 
  0.709411707004880     
 delta_qm =   0.311723E-05 delta_en =   0.755603E-05 tol =   0.100000E-04
 Charges are converged, EXIT

%%%% DENSITY %%%%%%%%%%%%%%%%%%%%%%%%%%%%%%%%%%%%%%%%%%%%%%%%%%%%%%%%%%%%%%%%%%%
 density label              = velectrostatic                                                                  
 integral of density        =     -1676.940290    

%%%% CHARGES %%%%%%%%%%%%%%%%%%%%%%%%%%%%%%%%%%%%%%%%%%%%%%%%%%%%%%%%%%%%%%%%%%%
 total number of charges    =        100
 total charge               =      0.0000000

%%%% DENSITY %%%%%%%%%%%%%%%%%%%%%%%%%%%%%%%%%%%%%%%%%%%%%%%%%%%%%%%%%%%%%%%%%%%
 density label              = vsoftcavity                                                                     
 integral of density        =      11.50382961    

%%%% ELECTRONS %%%%%%%%%%%%%%%%%%%%%%%%%%%%%%%%%%%%%%%%%%%%%%%%%%%%%%%%%%%%%%%%%
 number of electrons        =         90
 total electronic charge    =     90.0000000
 number of spin components  =  1

%%%% BOUNDARY %%%%%%%%%%%%%%%%%%%%%%%%%%%%%%%%%%%%%%%%%%%%%%%%%%%%%%%%%%%%%%%%%%
 boundary label             = solvent              
 boundary mode              = full                 
 boundary is built as a function of a smooth density
 function type              =  2 
 using the modified SCCS function with parameters 
 rhomax                     =      0.0050000 
 rhomin                     =      0.0001000 
 volume of the QM region    =   1628.1524733 
 surface of the QM region   =    336.5341225 

%%%% DIELECTRIC %%%%%%%%%%%%%%%%%%%%%%%%%%%%%%%%%%%%%%%%%%%%%%%%%%%%%%%%%%%%%%%%%
 dielectric build on homogeneous background
 environment bulk permitt.  =    100.0000000 
 dielectric flags
 need gradient              =  F 
 need factor depend. sqrt   =  T 
 total dielectric charge    =     -0.0014521

%%%% DENSITY %%%%%%%%%%%%%%%%%%%%%%%%%%%%%%%%%%%%%%%%%%%%%%%%%%%%%%%%%%%%%%%%%%%
 density label              = vreference                                                                      
 integral of density        =    -0.8405062233E-12

%%%% COMPUTE ELECTROSTATIC POTENTIAL %%%%%%%%%%%%%%%%%%%%%%%%%%%%%%%%%%%%%%%%%%%
 Warning: bad guess with residual norm =   0.200214E+05, reset to no guess
 Iteration #          1
  pAp =    1277.02924972630       rzold =    1275.87260313984       alpha = 
  0.999094267741550     
 delta_qm =   0.160316E+00 delta_en =   0.199852E+05 tol =   0.100000E-04
 Iteration #          2
  pAp =    1617.88528338205       rzold =    41.9781746714508       alpha = 
  2.594632332874612E-002
 delta_qm =   0.375669E-01 delta_en =   0.109741E+04 tol =   0.100000E-04
 Iteration #          3
  pAp =   0.768378781772459       rzold =  -1.180955340638614E-002  alpha = 
 -1.536944237208689E-002
 delta_qm =   0.354984E-01 delta_en =   0.979882E+03 tol =   0.100000E-04
 Iteration #          4
  pAp =   5.863163805029255E-003  rzold =   1.210345738384065E-002  alpha = 
   2.06432188939675     
 delta_qm =   0.892732E-02 delta_en =   0.619724E+02 tol =   0.100000E-04
 Iteration #          5
  pAp =   8.742175424684344E-002  rzold =   2.388019253285128E-002  alpha = 
  0.273160756594101     
 delta_qm =   0.285060E-02 delta_en =   0.631873E+01 tol =   0.100000E-04
 Iteration #          6
  pAp =   4.485654001263277E-003  rzold =   2.103492851279253E-003  alpha = 
  0.468937829508664     
 delta_qm =   0.639962E-02 delta_en =   0.318467E+02 tol =   0.100000E-04
 Iteration #          7
  pAp =  -2.144383811955789E-004  rzold =   1.156045451325742E-003  alpha = 
  -5.39103795169657     
 delta_qm =   0.506005E-01 delta_en =   0.199098E+04 tol =   0.100000E-04
 Iteration #          8
  pAp =    1.79272241219463       rzold =   9.966029091679608E-002  alpha = 
  5.559159088929613E-002
 delta_qm =   0.169490E-02 delta_en =   0.223380E+01 tol =   0.100000E-04
 Iteration #          9
  pAp =   1.391098911451931E-003  rzold =   4.516627726575601E-004  alpha = 
  0.324680559332870     
 delta_qm =   0.151334E-02 delta_en =   0.178087E+01 tol =   0.100000E-04
 Iteration #         10
  pAp =   1.731886932975700E-004  rzold =   9.814202008165205E-005  alpha = 
  0.566676832147616     
 delta_qm =   0.155400E-02 delta_en =   0.187784E+01 tol =   0.100000E-04
 Iteration #         11
  pAp =   9.291347381597048E-005  rzold =   1.088411027871222E-004  alpha = 
   1.17142431896044     
 delta_qm =   0.175910E-02 delta_en =   0.240624E+01 tol =   0.100000E-04
 Iteration #         12
  pAp =   7.733638033720401E-005  rzold =   2.476207769287792E-004  alpha = 
   3.20186664864708     
 delta_qm =   0.422889E-02 delta_en =   0.139062E+02 tol =   0.100000E-04
 Iteration #         13
  pAp =   5.800409328663539E-002  rzold =   3.197142565716205E-003  alpha = 
  5.511925770336716E-002
 delta_qm =   0.433898E-02 delta_en =   0.146397E+02 tol =   0.100000E-04
 Iteration #         14
  pAp =   3.439337948501051E-003  rzold =   3.124314062606920E-003  alpha = 
  0.908405661028040     
 delta_qm =   0.106810E-01 delta_en =   0.887118E+02 tol =   0.100000E-04
 Iteration #         15
  pAp =   7.246725697124854E-003  rzold =   9.688720677652880E-003  alpha = 
   1.33697908304945     
 delta_qm =   0.367857E-01 delta_en =   0.105224E+04 tol =   0.100000E-04
 Iteration #         16
  pAp =  -0.104176080795974       rzold =   5.467920035911808E-002  alpha = 
 -0.524872887723679     
 delta_qm =   0.169575E-01 delta_en =   0.223604E+03 tol =   0.100000E-04
 Iteration #         17
  pAp =   4.368400035825439E-002  rzold =   1.747117504635023E-002  alpha = 
  0.399944485465350     
 delta_qm =   0.415526E-02 delta_en =   0.134262E+02 tol =   0.100000E-04
 Iteration #         18
  pAp =   3.311665164835574E-003  rzold =   1.731904665768698E-003  alpha = 
  0.522970946507114     
 delta_qm =   0.224672E-02 delta_en =   0.392511E+01 tol =   0.100000E-04
 Iteration #         19
  pAp =   6.279768142868893E-004  rzold =   3.046414147545291E-004  alpha = 
  0.485115704630704     
 delta_qm =   0.150319E-02 delta_en =   0.175704E+01 tol =   0.100000E-04
 Iteration #         20
  pAp =   1.699799557172410E-004  rzold =   1.109159847217703E-004  alpha = 
  0.652523906443871     
 delta_qm =   0.105770E-02 delta_en =   0.869920E+00 tol =   0.100000E-04
 Iteration #         21
  pAp =   1.870806816830148E-004  rzold =   1.058344560302377E-005  alpha = 
  5.657155783169596E-002
 delta_qm =   0.114651E-02 delta_en =   0.102214E+01 tol =   0.100000E-04
 Iteration #         22
  pAp =   4.265256930283929E-006  rzold =  -1.201461337331528E-005  alpha = 
  -2.81685571811860     
 delta_qm =   0.687662E-03 delta_en =   0.367711E+00 tol =   0.100000E-04
 Iteration #         23
  pAp =   3.878566946919903E-005  rzold =   2.501630709670758E-005  alpha = 
  0.644988405229768     
 delta_qm =   0.375933E-03 delta_en =   0.109895E+00 tol =   0.100000E-04
 Iteration #         24
  pAp =   8.878076076099736E-004  rzold =   3.313317084446545E-005  alpha = 
  3.732021505612207E-002
 delta_qm =   0.360801E-03 delta_en =   0.101226E+00 tol =   0.100000E-04
 Iteration #         25
  pAp =   3.182382666340035E-005  rzold =   1.169658543518975E-005  alpha = 
  0.367541765448391     
 delta_qm =   0.294539E-03 delta_en =   0.674592E-01 tol =   0.100000E-04
 Iteration #         26
  pAp =   2.914019120298192E-005  rzold =   6.740563443837071E-006  alpha = 
  0.231315003971124     
 delta_qm =   0.219242E-03 delta_en =   0.373770E-01 tol =   0.100000E-04
 Iteration #         27
  pAp =   3.027354366936352E-006  rzold =   2.119829479746807E-006  alpha = 
  0.700225088578596     
 delta_qm =   0.944169E-04 delta_en =   0.693195E-02 tol =   0.100000E-04
 Iteration #         28
  pAp =   1.043450118076394E-006  rzold =   6.633498591817942E-007  alpha = 
  0.635727427396993     
 delta_qm =   0.488908E-04 delta_en =   0.185871E-02 tol =   0.100000E-04
 Iteration #         29
  pAp =   2.347680242145985E-007  rzold =   1.516620273755133E-007  alpha = 
  0.646008023805154     
 delta_qm =   0.280386E-04 delta_en =   0.611319E-03 tol =   0.100000E-04
 Iteration #         30
  pAp =   7.972917569184522E-008  rzold =   5.070931280212567E-008  alpha = 
  0.636019529389318     
 delta_qm =   0.189386E-04 delta_en =   0.278902E-03 tol =   0.100000E-04
 Iteration #         31
  pAp =   2.038939509527187E-008  rzold =   1.550411030561141E-008  alpha = 
  0.760400700127032     
 delta_qm =   0.917709E-05 delta_en =   0.654887E-04 tol =   0.100000E-04
 Iteration #         32
  pAp =   7.784543109998425E-009  rzold =   4.370107624386702E-009  alpha = 
  0.561382673669539     
 delta_qm =   0.507595E-05 delta_en =   0.200351E-04 tol =   0.100000E-04
 Iteration #         33
  pAp =   3.357359973863563E-009  rzold =   1.982461789459664E-009  alpha = 
  0.590482344727038     
 delta_qm =   0.354658E-05 delta_en =   0.978081E-05 tol =   0.100000E-04
 Charges are converged, EXIT

%%%% DENSITY %%%%%%%%%%%%%%%%%%%%%%%%%%%%%%%%%%%%%%%%%%%%%%%%%%%%%%%%%%%%%%%%%%%
 density label              = velectrostatic                                                                  
 integral of density        =     -1348.066236    

%%%% CHARGES %%%%%%%%%%%%%%%%%%%%%%%%%%%%%%%%%%%%%%%%%%%%%%%%%%%%%%%%%%%%%%%%%%%
 total number of charges    =        100
 total charge               =      0.0000000

%%%% DENSITY %%%%%%%%%%%%%%%%%%%%%%%%%%%%%%%%%%%%%%%%%%%%%%%%%%%%%%%%%%%%%%%%%%%
 density label              = vsoftcavity                                                                     
 integral of density        =      22.61804026    

%%%% ELECTRONS %%%%%%%%%%%%%%%%%%%%%%%%%%%%%%%%%%%%%%%%%%%%%%%%%%%%%%%%%%%%%%%%%
 number of electrons        =         90
 total electronic charge    =     90.0000000
 number of spin components  =  1

%%%% BOUNDARY %%%%%%%%%%%%%%%%%%%%%%%%%%%%%%%%%%%%%%%%%%%%%%%%%%%%%%%%%%%%%%%%%%
 boundary label             = solvent              
 boundary mode              = full                 
 boundary is built as a function of a smooth density
 function type              =  2 
 using the modified SCCS function with parameters 
 rhomax                     =      0.0050000 
 rhomin                     =      0.0001000 
 volume of the QM region    =   1624.9053757 
 surface of the QM region   =    295.1879558 

%%%% DIELECTRIC %%%%%%%%%%%%%%%%%%%%%%%%%%%%%%%%%%%%%%%%%%%%%%%%%%%%%%%%%%%%%%%%%
 dielectric build on homogeneous background
 environment bulk permitt.  =    100.0000000 
 dielectric flags
 need gradient              =  F 
 need factor depend. sqrt   =  T 
 total dielectric charge    =      0.0045082

%%%% DENSITY %%%%%%%%%%%%%%%%%%%%%%%%%%%%%%%%%%%%%%%%%%%%%%%%%%%%%%%%%%%%%%%%%%%
 density label              = vreference                                                                      
 integral of density        =     0.2648732786E-11

%%%% COMPUTE ELECTROSTATIC POTENTIAL %%%%%%%%%%%%%%%%%%%%%%%%%%%%%%%%%%%%%%%%%%%
 Warning: bad guess with residual norm =   0.343068E+05, reset to no guess
 Iteration #          1
  pAp =    1278.57220268292       rzold =    1274.71320373338       alpha = 
  0.996981790358459     
 delta_qm =   0.209413E+00 delta_en =   0.341007E+05 tol =   0.100000E-04
 Iteration #          2
  pAp =    4093.55952627110       rzold =    122.755405567575       alpha = 
  2.998744852243420E-002
 delta_qm =   0.161477E-01 delta_en =   0.202758E+03 tol =   0.100000E-04
 Iteration #          3
  pAp =    1.79290948417991       rzold =   0.259822649570497       alpha = 
  0.144916769007634     
 delta_qm =   0.123671E-01 delta_en =   0.118930E+03 tol =   0.100000E-04
 Iteration #          4
  pAp =   9.168202186192655E-003  rzold =   8.591890740890751E-003  alpha = 
  0.937140190236006     
 delta_qm =   0.235004E-01 delta_en =   0.429444E+03 tol =   0.100000E-04
 Iteration #          5
  pAp =  -0.115982365451225       rzold =   3.591011614995165E-002  alpha = 
 -0.309617035402275     
 delta_qm =   0.570853E-02 delta_en =   0.253399E+02 tol =   0.100000E-04
 Iteration #          6
  pAp =   5.156083057655134E-002  rzold =  -6.681509892765845E-003  alpha = 
 -0.129584993454400     
 delta_qm =   0.327128E-02 delta_en =   0.832129E+01 tol =   0.100000E-04
 Iteration #          7
  pAp =   8.572083172491763E-003  rzold =   4.962791119214589E-003  alpha = 
  0.578948082904798     
 delta_qm =   0.179314E-02 delta_en =   0.250025E+01 tol =   0.100000E-04
 Iteration #          8
  pAp =   1.990518462822733E-003  rzold =   1.033577469602271E-003  alpha = 
  0.519250380695573     
 delta_qm =   0.252851E-02 delta_en =   0.497147E+01 tol =   0.100000E-04
 Iteration #          9
  pAp =   6.846105257039817E-004  rzold =   4.032546724154296E-004  alpha = 
  0.589027859308422     
 delta_qm =   0.285624E-02 delta_en =   0.634375E+01 tol =   0.100000E-04
 Iteration #         10
  pAp =   3.001743323463183E-004  rzold =   5.577412352150510E-004  alpha = 
   1.85805771884443     
 delta_qm =   0.286449E-02 delta_en =   0.638046E+01 tol =   0.100000E-04
 Iteration #         11
  pAp =   8.755586471966235E-004  rzold =   1.954978604870249E-003  alpha = 
   2.23283569996108     
 delta_qm =   0.387192E-02 delta_en =   0.116576E+02 tol =   0.100000E-04
 Iteration #         12
  pAp =   1.184783692021930E-002  rzold =   5.136437070769590E-003  alpha = 
  0.433533741674300     
 delta_qm =   0.384140E-02 delta_en =   0.114745E+02 tol =   0.100000E-04
 Iteration #         13
  pAp =   0.407300751629051       rzold =   1.833272895818303E-002  alpha = 
  4.501029984565199E-002
 delta_qm =   0.385235E-02 delta_en =   0.115401E+02 tol =   0.100000E-04
 Iteration #         14
  pAp =   6.519495858518511E-003  rzold =   2.534213079992137E-003  alpha = 
  0.388713043920548     
 delta_qm =   0.293672E-02 delta_en =   0.670628E+01 tol =   0.100000E-04
 Iteration #         15
  pAp =   2.408170741030200E-003  rzold =   9.405341371003599E-004  alpha = 
  0.390559573320788     
 delta_qm =   0.226376E-02 delta_en =   0.398491E+01 tol =   0.100000E-04
 Iteration #         16
  pAp =   3.223120813034152E-004  rzold =   3.044431427760709E-004  alpha = 
  0.944560134218106     
 delta_qm =   0.119660E-02 delta_en =   0.111340E+01 tol =   0.100000E-04
 Iteration #         17
  pAp =   3.084474312706751E-004  rzold =   2.093185338936922E-004  alpha = 
  0.678619799268183     
 delta_qm =   0.697633E-03 delta_en =   0.378452E+00 tol =   0.100000E-04
 Iteration #         18
  pAp =   1.452095025880823E-004  rzold =   8.422750206556069E-005  alpha = 
  0.580041254631179     
 delta_qm =   0.366447E-03 delta_en =   0.104419E+00 tol =   0.100000E-04
 Iteration #         19
  pAp =   1.953916549702200E-005  rzold =   1.070711607337137E-005  alpha = 
  0.547982260296800     
 delta_qm =   0.193331E-03 delta_en =   0.290642E-01 tol =   0.100000E-04
 Iteration #         20
  pAp =   3.431400398767981E-006  rzold =   2.485752998774713E-006  alpha = 
  0.724413565862848     
 delta_qm =   0.113940E-03 delta_en =   0.100951E-01 tol =   0.100000E-04
 Iteration #         21
  pAp =   8.506964491122425E-007  rzold =   7.748905011498583E-007  alpha = 
  0.910889544629588     
 delta_qm =   0.458334E-04 delta_en =   0.163350E-02 tol =   0.100000E-04
 Iteration #         22
  pAp =   3.182066276946386E-007  rzold =   1.985257341394341E-007  alpha = 
  0.623889375207941     
 delta_qm =   0.273081E-04 delta_en =   0.579881E-03 tol =   0.100000E-04
 Iteration #         23
  pAp =   1.277333579996768E-006  rzold =   8.789642615183502E-008  alpha = 
  6.881242889743605E-002
 delta_qm =   0.256926E-04 delta_en =   0.513301E-03 tol =   0.100000E-04
 Iteration #         24
  pAp =   3.916446577584906E-007  rzold =   9.947714782294886E-008  alpha = 
  0.253998480133213     
 delta_qm =   0.150473E-04 delta_en =   0.176065E-03 tol =   0.100000E-04
 Iteration #         25
  pAp =   1.734748504389891E-008  rzold =   1.232201239037690E-008  alpha = 
  0.710305405031062     
 delta_qm =   0.567900E-05 delta_en =   0.250784E-04 tol =   0.100000E-04
 Iteration #         26
  pAp =   4.160580608033071E-009  rzold =   2.873188777816261E-009  alpha = 
  0.690573996395799     
 delta_qm =   0.307781E-05 delta_en =   0.736616E-05 tol =   0.100000E-04
 Charges are converged, EXIT

%%%% DENSITY %%%%%%%%%%%%%%%%%%%%%%%%%%%%%%%%%%%%%%%%%%%%%%%%%%%%%%%%%%%%%%%%%%%
 density label              = velectrostatic                                                                  
 integral of density        =     -1351.108456    

%%%% CHARGES %%%%%%%%%%%%%%%%%%%%%%%%%%%%%%%%%%%%%%%%%%%%%%%%%%%%%%%%%%%%%%%%%%%
 total number of charges    =        100
 total charge               =      0.0000000

%%%% DENSITY %%%%%%%%%%%%%%%%%%%%%%%%%%%%%%%%%%%%%%%%%%%%%%%%%%%%%%%%%%%%%%%%%%%
 density label              = vsoftcavity                                                                     
 integral of density        =      21.36409731    

%%%% ELECTRONS %%%%%%%%%%%%%%%%%%%%%%%%%%%%%%%%%%%%%%%%%%%%%%%%%%%%%%%%%%%%%%%%%
 number of electrons        =         90
 total electronic charge    =     90.0000000
 number of spin components  =  1

%%%% BOUNDARY %%%%%%%%%%%%%%%%%%%%%%%%%%%%%%%%%%%%%%%%%%%%%%%%%%%%%%%%%%%%%%%%%%
 boundary label             = solvent              
 boundary mode              = full                 
 boundary is built as a function of a smooth density
 function type              =  2 
 using the modified SCCS function with parameters 
 rhomax                     =      0.0050000 
 rhomin                     =      0.0001000 
 volume of the QM region    =   1616.5227504 
 surface of the QM region   =    275.9257832 

%%%% DIELECTRIC %%%%%%%%%%%%%%%%%%%%%%%%%%%%%%%%%%%%%%%%%%%%%%%%%%%%%%%%%%%%%%%%%
 dielectric build on homogeneous background
 environment bulk permitt.  =    100.0000000 
 dielectric flags
 need gradient              =  F 
 need factor depend. sqrt   =  T 
 total dielectric charge    =      0.0005262

%%%% DENSITY %%%%%%%%%%%%%%%%%%%%%%%%%%%%%%%%%%%%%%%%%%%%%%%%%%%%%%%%%%%%%%%%%%%
 density label              = vreference                                                                      
 integral of density        =    -0.1332297035E-11

%%%% COMPUTE ELECTROSTATIC POTENTIAL %%%%%%%%%%%%%%%%%%%%%%%%%%%%%%%%%%%%%%%%%%%
 Warning: bad guess with residual norm =   0.681600E+04, reset to no guess
 Iteration #          1
  pAp =    1273.36505194122       rzold =    1272.38268685403       alpha = 
  0.999228528311115     
 delta_qm =   0.935520E-01 delta_en =   0.680554E+04 tol =   0.100000E-04
 Iteration #          2
  pAp =    919.474708661302       rzold =    28.9933421207179       alpha = 
  3.153250638392256E-002
 delta_qm =   0.170089E-01 delta_en =   0.224962E+03 tol =   0.100000E-04
 Iteration #          3
  pAp =    1.25555852279117       rzold =   0.187652812330165       alpha = 
  0.149457638910374     
 delta_qm =   0.172393E-01 delta_en =   0.231097E+03 tol =   0.100000E-04
 Iteration #          4
  pAp =  -1.437857735773568E-002  rzold =   1.401423113214866E-002  alpha = 
 -0.974660481595489     
 delta_qm =   0.971019E-02 delta_en =   0.733182E+02 tol =   0.100000E-04
 Iteration #          5
  pAp =   0.344553208158511       rzold =   3.608453212968164E-002  alpha = 
  0.104728475240553     
 delta_qm =   0.910210E-02 delta_en =   0.644228E+02 tol =   0.100000E-04
 Iteration #          6
  pAp =   2.880232538601043E-002  rzold =  -1.577477020573032E-002  alpha = 
 -0.547690854620797     
 delta_qm =   0.223484E-02 delta_en =   0.388373E+01 tol =   0.100000E-04
 Iteration #          7
  pAp =   1.157984870926311E-002  rzold =   3.970837177675966E-003  alpha = 
  0.342909244962722     
 delta_qm =   0.118993E-02 delta_en =   0.110103E+01 tol =   0.100000E-04
 Iteration #          8
  pAp =   9.613506886997611E-004  rzold =   4.682326231770207E-004  alpha = 
  0.487057042430906     
 delta_qm =   0.110909E-02 delta_en =   0.956509E+00 tol =   0.100000E-04
 Iteration #          9
  pAp =   2.912914838307361E-004  rzold =   1.411772297928883E-004  alpha = 
  0.484659654090415     
 delta_qm =   0.121150E-02 delta_en =   0.114131E+01 tol =   0.100000E-04
 Iteration #         10
  pAp =   9.618066995021739E-005  rzold =   1.310283185736573E-004  alpha = 
   1.36231447172781     
 delta_qm =   0.128674E-02 delta_en =   0.128748E+01 tol =   0.100000E-04
 Iteration #         11
  pAp =   1.409109239558088E-004  rzold =   3.453924041637043E-004  alpha = 
   2.45114001432581     
 delta_qm =   0.171132E-02 delta_en =   0.227730E+01 tol =   0.100000E-04
 Iteration #         12
  pAp =   1.672904917015242E-003  rzold =   1.201854071153717E-003  alpha = 
  0.718423419603570     
 delta_qm =   0.193348E-02 delta_en =   0.290694E+01 tol =   0.100000E-04
 Iteration #         13
  pAp =   2.071315792763308E-003  rzold =   8.356828909730914E-004  alpha = 
  0.403455085840977     
 delta_qm =   0.156283E-02 delta_en =   0.189923E+01 tol =   0.100000E-04
 Iteration #         14
  pAp =   1.467407461246749E-002  rzold =   8.227414375299161E-004  alpha = 
  5.606768803198620E-002
 delta_qm =   0.150427E-02 delta_en =   0.175956E+01 tol =   0.100000E-04
 Iteration #         15
  pAp =   2.028427538056671E-003  rzold =   5.042434516509006E-004  alpha = 
  0.248588348457342     
 delta_qm =   0.114176E-02 delta_en =   0.101370E+01 tol =   0.100000E-04
 Iteration #         16
  pAp =   1.224297346924216E-004  rzold =   9.676024784282271E-005  alpha = 
  0.790332904713974     
 delta_qm =   0.690036E-03 delta_en =   0.370254E+00 tol =   0.100000E-04
 Iteration #         17
  pAp =   9.806678530558604E-005  rzold =   7.096197450730501E-005  alpha = 
  0.723608653900302     
 delta_qm =   0.328140E-03 delta_en =   0.837289E-01 tol =   0.100000E-04
 Iteration #         18
  pAp =   4.086941143952134E-005  rzold =   2.703898976319218E-005  alpha = 
  0.661594792066055     
 delta_qm =   0.181724E-03 delta_en =   0.256791E-01 tol =   0.100000E-04
 Iteration #         19
  pAp =   6.796651976327773E-006  rzold =   3.625707854566128E-006  alpha = 
  0.533454981540058     
 delta_qm =   0.104864E-03 delta_en =   0.855086E-02 tol =   0.100000E-04
 Iteration #         20
  pAp =   8.617911766737856E-007  rzold =   6.115181446253386E-007  alpha = 
  0.709589702444606     
 delta_qm =   0.494643E-04 delta_en =   0.190257E-02 tol =   0.100000E-04
 Iteration #         21
  pAp =   1.755777569721135E-007  rzold =   1.556134188743907E-007  alpha = 
  0.886293466541473     
 delta_qm =   0.175106E-04 delta_en =   0.238427E-03 tol =   0.100000E-04
 Iteration #         22
  pAp =   6.179880688678058E-008  rzold =   4.154071243304446E-008  alpha = 
  0.672192790212758     
 delta_qm =   0.823471E-05 delta_en =   0.527294E-04 tol =   0.100000E-04
 Iteration #         23
  pAp =   1.556356113023702E-008  rzold =   7.702115704883387E-009  alpha = 
  0.494881321853753     
 delta_qm =   0.441853E-05 delta_en =   0.151814E-04 tol =   0.100000E-04
 Iteration #         24
  pAp =   2.721221547663810E-009  rzold =   1.519235714850765E-009  alpha = 
  0.558291814260783     
 delta_qm =   0.228556E-05 delta_en =   0.406203E-05 tol =   0.100000E-04
 Charges are converged, EXIT

%%%% DENSITY %%%%%%%%%%%%%%%%%%%%%%%%%%%%%%%%%%%%%%%%%%%%%%%%%%%%%%%%%%%%%%%%%%%
 density label              = velectrostatic                                                                  
 integral of density        =     -1369.926862    

%%%% CHARGES %%%%%%%%%%%%%%%%%%%%%%%%%%%%%%%%%%%%%%%%%%%%%%%%%%%%%%%%%%%%%%%%%%%
 total number of charges    =        100
 total charge               =      0.0000000

%%%% DENSITY %%%%%%%%%%%%%%%%%%%%%%%%%%%%%%%%%%%%%%%%%%%%%%%%%%%%%%%%%%%%%%%%%%%
 density label              = vsoftcavity                                                                     
 integral of density        =      5.970783136    

%%%% ELECTRONS %%%%%%%%%%%%%%%%%%%%%%%%%%%%%%%%%%%%%%%%%%%%%%%%%%%%%%%%%%%%%%%%%
 number of electrons        =         90
 total electronic charge    =     90.0000000
 number of spin components  =  1

%%%% BOUNDARY %%%%%%%%%%%%%%%%%%%%%%%%%%%%%%%%%%%%%%%%%%%%%%%%%%%%%%%%%%%%%%%%%%
 boundary label             = solvent              
 boundary mode              = full                 
 boundary is built as a function of a smooth density
 function type              =  2 
 using the modified SCCS function with parameters 
 rhomax                     =      0.0050000 
 rhomin                     =      0.0001000 
 volume of the QM region    =   1602.2094755 
 surface of the QM region   =    269.7183308 

%%%% DIELECTRIC %%%%%%%%%%%%%%%%%%%%%%%%%%%%%%%%%%%%%%%%%%%%%%%%%%%%%%%%%%%%%%%%%
 dielectric build on homogeneous background
 environment bulk permitt.  =    100.0000000 
 dielectric flags
 need gradient              =  F 
 need factor depend. sqrt   =  T 
 total dielectric charge    =     -0.0012264

%%%% DENSITY %%%%%%%%%%%%%%%%%%%%%%%%%%%%%%%%%%%%%%%%%%%%%%%%%%%%%%%%%%%%%%%%%%%
 density label              = vreference                                                                      
 integral of density        =    -0.1613011300E-11

%%%% COMPUTE ELECTROSTATIC POTENTIAL %%%%%%%%%%%%%%%%%%%%%%%%%%%%%%%%%%%%%%%%%%%
 Warning: bad guess with residual norm =   0.483675E+04, reset to no guess
 Iteration #          1
  pAp =    1270.15667414815       rzold =    1269.37188968499       alpha = 
  0.999382135700948     
 delta_qm =   0.788191E-01 delta_en =   0.483081E+04 tol =   0.100000E-04
 Iteration #          2
  pAp =    712.236264389451       rzold =    22.5536624703639       alpha = 
  3.166598444646386E-002
 delta_qm =   0.172374E-01 delta_en =   0.231046E+03 tol =   0.100000E-04
 Iteration #          3
  pAp =    1.66967613122182       rzold =   0.243132446173341       alpha = 
  0.145616531030736     
 delta_qm =   0.153250E-01 delta_en =   0.182624E+03 tol =   0.100000E-04
 Iteration #          4
  pAp =  -8.772372612494885E-003  rzold =   1.377747689838400E-002  alpha = 
  -1.57055308831275     
 delta_qm =   0.134167E-01 delta_en =   0.139974E+03 tol =   0.100000E-04
 Iteration #          5
  pAp =   0.773100008433500       rzold =   6.916678845254622E-002  alpha = 
  8.946680597339013E-002
 delta_qm =   0.835200E-02 delta_en =   0.542422E+02 tol =   0.100000E-04
 Iteration #          6
  pAp =   7.219393081695082E-002  rzold =  -3.187338961602647E-002  alpha = 
 -0.441496802506046     
 delta_qm =   0.184350E-02 delta_en =   0.264266E+01 tol =   0.100000E-04
 Iteration #          7
  pAp =   1.219606549878204E-002  rzold =   3.849278247436646E-003  alpha = 
  0.315616396765092     
 delta_qm =   0.109607E-02 delta_en =   0.934190E+00 tol =   0.100000E-04
 Iteration #          8
  pAp =   1.041890095297440E-003  rzold =   4.686930139306068E-004  alpha = 
  0.449848804635007     
 delta_qm =   0.942949E-03 delta_en =   0.691406E+00 tol =   0.100000E-04
 Iteration #          9
  pAp =   3.076248293316228E-004  rzold =   1.378257735587330E-004  alpha = 
  0.448032019581083     
 delta_qm =   0.982874E-03 delta_en =   0.751194E+00 tol =   0.100000E-04
 Iteration #         10
  pAp =   8.344638104028511E-005  rzold =   1.050946758400594E-004  alpha = 
   1.25942760524657     
 delta_qm =   0.108584E-02 delta_en =   0.916824E+00 tol =   0.100000E-04
 Iteration #         11
  pAp =   7.160293040857348E-005  rzold =   2.322696188974370E-004  alpha = 
   3.24385632783579     
 delta_qm =   0.147845E-02 delta_en =   0.169969E+01 tol =   0.100000E-04
 Iteration #         12
  pAp =   1.062482543251974E-003  rzold =   8.354654671647091E-004  alpha = 
  0.786333359047550     
 delta_qm =   0.166943E-02 delta_en =   0.216718E+01 tol =   0.100000E-04
 Iteration #         13
  pAp =   1.691941470613809E-003  rzold =   6.675720178742475E-004  alpha = 
  0.394559758401136     
 delta_qm =   0.145444E-02 delta_en =   0.164492E+01 tol =   0.100000E-04
 Iteration #         14
  pAp =   6.373497182324849E-003  rzold =   4.560328024555837E-004  alpha = 
  7.155142450211885E-002
 delta_qm =   0.131831E-02 delta_en =   0.135143E+01 tol =   0.100000E-04
 Iteration #         15
  pAp =   2.312230254860696E-003  rzold =   4.714438596700107E-004  alpha = 
  0.203891398219947     
 delta_qm =   0.102331E-02 delta_en =   0.814280E+00 tol =   0.100000E-04
 Iteration #         16
  pAp =   1.301888173766065E-004  rzold =   1.119512518671066E-004  alpha = 
  0.859914500515488     
 delta_qm =   0.532409E-03 delta_en =   0.220418E+00 tol =   0.100000E-04
 Iteration #         17
  pAp =   1.217989120792021E-004  rzold =   8.054531722506740E-005  alpha = 
  0.661297509559784     
 delta_qm =   0.285549E-03 delta_en =   0.634040E-01 tol =   0.100000E-04
 Iteration #         18
  pAp =   5.645440706486460E-005  rzold =   3.131420036397252E-005  alpha = 
  0.554681237338891     
 delta_qm =   0.165680E-03 delta_en =   0.213451E-01 tol =   0.100000E-04
 Iteration #         19
  pAp =   7.793172721911788E-006  rzold =   4.095481240680819E-006  alpha = 
  0.525521682480577     
 delta_qm =   0.108352E-03 delta_en =   0.912917E-02 tol =   0.100000E-04
 Iteration #         20
  pAp =   1.185581533033949E-006  rzold =   7.666667879727662E-007  alpha = 
  0.646658847671856     
 delta_qm =   0.548500E-04 delta_en =   0.233943E-02 tol =   0.100000E-04
 Iteration #         21
  pAp =   2.125878909823771E-007  rzold =   1.923328469171671E-007  alpha = 
  0.904721553181554     
 delta_qm =   0.180567E-04 delta_en =   0.253532E-03 tol =   0.100000E-04
 Iteration #         22
  pAp =   8.167623200539517E-008  rzold =   5.232741827826481E-008  alpha = 
  0.640668857921951     
 delta_qm =   0.788721E-05 delta_en =   0.483730E-04 tol =   0.100000E-04
 Iteration #         23
  pAp =   2.704067864981286E-008  rzold =   1.296654720420605E-008  alpha = 
  0.479520036169499     
 delta_qm =   0.472210E-05 delta_en =   0.173391E-04 tol =   0.100000E-04
 Iteration #         24
  pAp =   4.809773985136413E-008  rzold =   3.558181164216100E-009  alpha = 
  7.397813650312686E-002
 delta_qm =   0.439313E-05 delta_en =   0.150074E-04 tol =   0.100000E-04
 Iteration #         25
  pAp =   1.207640300084299E-008  rzold =   4.384641133278550E-009  alpha = 
  0.363075092225101     
 delta_qm =   0.290410E-05 delta_en =   0.655810E-05 tol =   0.100000E-04
 Charges are converged, EXIT

%%%% DENSITY %%%%%%%%%%%%%%%%%%%%%%%%%%%%%%%%%%%%%%%%%%%%%%%%%%%%%%%%%%%%%%%%%%%
 density label              = velectrostatic                                                                  
 integral of density        =     -1347.862935    

%%%% CHARGES %%%%%%%%%%%%%%%%%%%%%%%%%%%%%%%%%%%%%%%%%%%%%%%%%%%%%%%%%%%%%%%%%%%
 total number of charges    =        100
 total charge               =      0.0000000

%%%% DENSITY %%%%%%%%%%%%%%%%%%%%%%%%%%%%%%%%%%%%%%%%%%%%%%%%%%%%%%%%%%%%%%%%%%%
 density label              = vsoftcavity                                                                     
 integral of density        =      5.700085388    

%%%% ELECTRONS %%%%%%%%%%%%%%%%%%%%%%%%%%%%%%%%%%%%%%%%%%%%%%%%%%%%%%%%%%%%%%%%%
 number of electrons        =         90
 total electronic charge    =     90.0000000
 number of spin components  =  1

%%%% BOUNDARY %%%%%%%%%%%%%%%%%%%%%%%%%%%%%%%%%%%%%%%%%%%%%%%%%%%%%%%%%%%%%%%%%%
 boundary label             = solvent              
 boundary mode              = full                 
 boundary is built as a function of a smooth density
 function type              =  2 
 using the modified SCCS function with parameters 
 rhomax                     =      0.0050000 
 rhomin                     =      0.0001000 
 volume of the QM region    =   1601.5868947 
 surface of the QM region   =    267.1610010 

%%%% DIELECTRIC %%%%%%%%%%%%%%%%%%%%%%%%%%%%%%%%%%%%%%%%%%%%%%%%%%%%%%%%%%%%%%%%%
 dielectric build on homogeneous background
 environment bulk permitt.  =    100.0000000 
 dielectric flags
 need gradient              =  F 
 need factor depend. sqrt   =  T 
 total dielectric charge    =     -0.0001798

%%%% DENSITY %%%%%%%%%%%%%%%%%%%%%%%%%%%%%%%%%%%%%%%%%%%%%%%%%%%%%%%%%%%%%%%%%%%
 density label              = vreference                                                                      
 integral of density        =    -0.2929015448E-12

%%%% COMPUTE ELECTROSTATIC POTENTIAL %%%%%%%%%%%%%%%%%%%%%%%%%%%%%%%%%%%%%%%%%%%
 Warning: bad guess with residual norm =   0.370231E+04, reset to no guess
 Iteration #          1
  pAp =    1270.08600530804       rzold =    1269.38917794187       alpha = 
  0.999451354189196     
 delta_qm =   0.689638E-01 delta_en =   0.369827E+04 tol =   0.100000E-04
 Iteration #          2
  pAp =    602.921186818866       rzold =    19.4253142014416       alpha = 
  3.221866244895704E-002
 delta_qm =   0.153170E-01 delta_en =   0.182434E+03 tol =   0.100000E-04
 Iteration #          3
  pAp =    1.84441823402207       rzold =   0.266603211341960       alpha = 
  0.144545963829790     
 delta_qm =   0.131802E-01 delta_en =   0.135083E+03 tol =   0.100000E-04
 Iteration #          4
  pAp =  -3.278461509351992E-003  rzold =   1.362274075286500E-002  alpha = 
  -4.15522363584425     
 delta_qm =   0.307032E-01 delta_en =   0.733035E+03 tol =   0.100000E-04
 Iteration #          5
  pAp =    3.93087365377040       rzold =   0.135113917893558       alpha = 
  3.437249064567608E-002
 delta_qm =   0.232749E-01 delta_en =   0.421242E+03 tol =   0.100000E-04
 Iteration #          6
  pAp =   0.249773746715232       rzold =  -0.111630137393618       alpha = 
 -0.446925022592097     
 delta_qm =   0.155362E-02 delta_en =   0.187692E+01 tol =   0.100000E-04
 Iteration #          7
  pAp =   1.119819212285686E-002  rzold =   3.466120994351437E-003  alpha = 
  0.309525051572982     
 delta_qm =   0.982471E-03 delta_en =   0.750578E+00 tol =   0.100000E-04
 Iteration #          8
  pAp =   8.895480532250075E-004  rzold =   4.101082652701190E-004  alpha = 
  0.461029917139714     
 delta_qm =   0.857061E-03 delta_en =   0.571189E+00 tol =   0.100000E-04
 Iteration #          9
  pAp =   2.402155762962197E-004  rzold =   1.171312594935283E-004  alpha = 
  0.487608927362349     
 delta_qm =   0.889192E-03 delta_en =   0.614819E+00 tol =   0.100000E-04
 Iteration #         10
  pAp =   9.385114348389289E-005  rzold =   1.071725737096256E-004  alpha = 
   1.14194211952270     
 delta_qm =   0.959512E-03 delta_en =   0.715908E+00 tol =   0.100000E-04
 Iteration #         11
  pAp =   7.230227822387994E-005  rzold =   2.217046825138778E-004  alpha = 
   3.06635818345007     
 delta_qm =   0.134726E-02 delta_en =   0.141143E+01 tol =   0.100000E-04
 Iteration #         12
  pAp =   9.222531544301790E-004  rzold =   7.088024789685188E-004  alpha = 
  0.768555223220091     
 delta_qm =   0.132810E-02 delta_en =   0.137157E+01 tol =   0.100000E-04
 Iteration #         13
  pAp =   3.170962222501060E-003  rzold =   5.636269586575986E-004  alpha = 
  0.177746349249486     
 delta_qm =   0.143152E-02 delta_en =   0.159350E+01 tol =   0.100000E-04
 Iteration #         14
  pAp =   1.848177685970202E-002  rzold =   1.586734758495772E-003  alpha = 
  8.585401558199282E-002
 delta_qm =   0.113753E-02 delta_en =   0.100620E+01 tol =   0.100000E-04
 Iteration #         15
  pAp =   4.170954775090132E-004  rzold =   1.739556605579390E-004  alpha = 
  0.417064365206837     
 delta_qm =   0.878478E-03 delta_en =   0.600092E+00 tol =   0.100000E-04
 Iteration #         16
  pAp =   1.506719388483168E-004  rzold =   1.076779826848582E-004  alpha = 
  0.714651868874262     
 delta_qm =   0.435182E-03 delta_en =   0.147265E+00 tol =   0.100000E-04
 Iteration #         17
  pAp =   8.619912401503035E-005  rzold =   6.150414298078608E-005  alpha = 
  0.713512389871407     
 delta_qm =   0.212802E-03 delta_en =   0.352133E-01 tol =   0.100000E-04
 Iteration #         18
  pAp =   3.790445652841912E-005  rzold =   2.062357004224760E-005  alpha = 
  0.544093542847262     
 delta_qm =   0.109843E-03 delta_en =   0.938216E-02 tol =   0.100000E-04
 Iteration #         19
  pAp =   5.187926402418998E-006  rzold =   2.629624585820856E-006  alpha = 
  0.506873918757739     
 delta_qm =   0.712836E-04 delta_en =   0.395126E-02 tol =   0.100000E-04
 Iteration #         20
  pAp =   7.449560808088773E-007  rzold =   4.449647929593928E-007  alpha = 
  0.597303390659282     
 delta_qm =   0.404463E-04 delta_en =   0.127208E-02 tol =   0.100000E-04
 Iteration #         21
  pAp =   1.199329650198367E-007  rzold =   1.040196025829579E-007  alpha = 
  0.867314524957781     
 delta_qm =   0.127765E-04 delta_en =   0.126935E-03 tol =   0.100000E-04
 Iteration #         22
  pAp =   3.915381811713181E-008  rzold =   2.722644891675690E-008  alpha = 
  0.695371491876138     
 delta_qm =   0.525269E-05 delta_en =   0.214545E-04 tol =   0.100000E-04
 Iteration #         23
  pAp =   1.148373787396252E-008  rzold =   5.842479394571924E-009  alpha = 
  0.508761124530610     
 delta_qm =   0.276950E-05 delta_en =   0.596431E-05 tol =   0.100000E-04
 Charges are converged, EXIT

%%%% DENSITY %%%%%%%%%%%%%%%%%%%%%%%%%%%%%%%%%%%%%%%%%%%%%%%%%%%%%%%%%%%%%%%%%%%
 density label              = velectrostatic                                                                  
 integral of density        =     -1355.542928    

%%%% CHARGES %%%%%%%%%%%%%%%%%%%%%%%%%%%%%%%%%%%%%%%%%%%%%%%%%%%%%%%%%%%%%%%%%%%
 total number of charges    =        100
 total charge               =      0.0000000

%%%% DENSITY %%%%%%%%%%%%%%%%%%%%%%%%%%%%%%%%%%%%%%%%%%%%%%%%%%%%%%%%%%%%%%%%%%%
 density label              = vsoftcavity                                                                     
 integral of density        =      4.965346274    

%%%% ELECTRONS %%%%%%%%%%%%%%%%%%%%%%%%%%%%%%%%%%%%%%%%%%%%%%%%%%%%%%%%%%%%%%%%%
 number of electrons        =         90
 total electronic charge    =     90.0000000
 number of spin components  =  1

%%%% BOUNDARY %%%%%%%%%%%%%%%%%%%%%%%%%%%%%%%%%%%%%%%%%%%%%%%%%%%%%%%%%%%%%%%%%%
 boundary label             = solvent              
 boundary mode              = full                 
 boundary is built as a function of a smooth density
 function type              =  2 
 using the modified SCCS function with parameters 
 rhomax                     =      0.0050000 
 rhomin                     =      0.0001000 
 volume of the QM region    =   1599.9609479 
 surface of the QM region   =    263.7702755 

%%%% DIELECTRIC %%%%%%%%%%%%%%%%%%%%%%%%%%%%%%%%%%%%%%%%%%%%%%%%%%%%%%%%%%%%%%%%%
 dielectric build on homogeneous background
 environment bulk permitt.  =    100.0000000 
 dielectric flags
 need gradient              =  F 
 need factor depend. sqrt   =  T 
 total dielectric charge    =     -0.0005626

%%%% DENSITY %%%%%%%%%%%%%%%%%%%%%%%%%%%%%%%%%%%%%%%%%%%%%%%%%%%%%%%%%%%%%%%%%%%
 density label              = vreference                                                                      
 integral of density        =    -0.3340289503E-12

%%%% COMPUTE ELECTROSTATIC POTENTIAL %%%%%%%%%%%%%%%%%%%%%%%%%%%%%%%%%%%%%%%%%%%
 Warning: bad guess with residual norm =   0.317404E+04, reset to no guess
 Iteration #          1
  pAp =    1270.28197157494       rzold =    1269.58859925672       alpha = 
  0.999454158735045     
 delta_qm =   0.638546E-01 delta_en =   0.317060E+04 tol =   0.100000E-04
 Iteration #          2
  pAp =    583.446053890027       rzold =    18.9957651130200       alpha = 
  3.255787743591540E-002
 delta_qm =   0.141546E-01 delta_en =   0.155795E+03 tol =   0.100000E-04
 Iteration #          3
  pAp =    2.05203761815185       rzold =   0.293188116058703       alpha = 
  0.142876579583741     
 delta_qm =   0.113329E-01 delta_en =   0.998710E+02 tol =   0.100000E-04
 Iteration #          4
  pAp =   2.450727530703477E-003  rzold =   1.243077070637387E-002  alpha = 
   5.07227774227747     
 delta_qm =   0.372907E-01 delta_en =   0.108132E+04 tol =   0.100000E-04
 Iteration #          5
  pAp =    4.79699622428565       rzold =  -0.116485565513494       alpha = 
 -2.428302213868033E-002
 delta_qm =   0.432712E-01 delta_en =   0.145597E+04 tol =   0.100000E-04
 Iteration #          6
  pAp =  -0.238025658569331       rzold =   0.127345711591982       alpha = 
 -0.535008336317191     
 delta_qm =   0.137798E-02 delta_en =   0.147654E+01 tol =   0.100000E-04
 Iteration #          7
  pAp =   9.386802977192479E-003  rzold =   2.955810246301416E-003  alpha = 
  0.314889984745954     
 delta_qm =   0.921056E-03 delta_en =   0.659672E+00 tol =   0.100000E-04
 Iteration #          8
  pAp =   9.216882507199479E-004  rzold =   4.010179537302699E-004  alpha = 
  0.435090664785004     
 delta_qm =   0.820658E-03 delta_en =   0.523698E+00 tol =   0.100000E-04
 Iteration #          9
  pAp =   2.328072995608994E-004  rzold =   1.193477589256344E-004  alpha = 
  0.512646120421214     
 delta_qm =   0.832393E-03 delta_en =   0.538782E+00 tol =   0.100000E-04
 Iteration #         10
  pAp =   9.700854772197166E-005  rzold =   1.098680087366654E-004  alpha = 
   1.13256008173166     
 delta_qm =   0.896549E-03 delta_en =   0.625035E+00 tol =   0.100000E-04
 Iteration #         11
  pAp =   1.015805103550362E-004  rzold =   2.388843904659777E-004  alpha = 
   2.35167543095667     
 delta_qm =   0.115273E-02 delta_en =   0.103326E+01 tol =   0.100000E-04
 Iteration #         12
  pAp =   1.048746608329846E-003  rzold =   7.286490245976733E-004  alpha = 
  0.694780816271782     
 delta_qm =   0.109952E-02 delta_en =   0.940084E+00 tol =   0.100000E-04
 Iteration #         13
  pAp =   2.894359716217129E-003  rzold =   4.502008867590531E-004  alpha = 
  0.155544206974887     
 delta_qm =   0.976903E-03 delta_en =   0.742094E+00 tol =   0.100000E-04
 Iteration #         14
  pAp =   1.021810198444168E-002  rzold =   1.281977533458470E-003  alpha = 
  0.125461414987875     
 delta_qm =   0.907385E-03 delta_en =   0.640234E+00 tol =   0.100000E-04
 Iteration #         15
  pAp =   1.530677800466340E-004  rzold =   9.106709070463471E-005  alpha = 
  0.594946177940844     
 delta_qm =   0.628550E-03 delta_en =   0.307210E+00 tol =   0.100000E-04
 Iteration #         16
  pAp =   1.797699656848235E-004  rzold =   8.522997153609060E-005  alpha = 
  0.474105734021875     
 delta_qm =   0.365285E-03 delta_en =   0.103758E+00 tol =   0.100000E-04
 Iteration #         17
  pAp =   8.195947806280174E-005  rzold =   5.051350708799998E-005  alpha = 
  0.616322947411815     
 delta_qm =   0.177781E-03 delta_en =   0.245768E-01 tol =   0.100000E-04
 Iteration #         18
  pAp =   2.794129838360378E-005  rzold =   1.624580088518936E-005  alpha = 
  0.581426126379387     
 delta_qm =   0.849362E-04 delta_en =   0.560973E-02 tol =   0.100000E-04
 Iteration #         19
  pAp =   3.919126275042844E-006  rzold =   2.037347066018486E-006  alpha = 
  0.519847262639225     
 delta_qm =   0.521830E-04 delta_en =   0.211746E-02 tol =   0.100000E-04
 Iteration #         20
  pAp =   5.202452079986650E-007  rzold =   3.052474899814249E-007  alpha = 
  0.586737725380852     
 delta_qm =   0.305369E-04 delta_en =   0.725112E-03 tol =   0.100000E-04
 Iteration #         21
  pAp =   8.669865753022009E-008  rzold =   6.890404062463077E-008  alpha = 
  0.794753259018033     
 delta_qm =   0.108136E-04 delta_en =   0.909277E-04 tol =   0.100000E-04
 Iteration #         22
  pAp =   4.058399909120770E-008  rzold =   2.336635467524344E-008  alpha = 
  0.575752887800198     
 delta_qm =   0.460870E-05 delta_en =   0.165163E-04 tol =   0.100000E-04
 Iteration #         23
  pAp =   1.002401581946191E-008  rzold =   5.373091470217936E-009  alpha = 
  0.536021846632158     
 delta_qm =   0.194418E-05 delta_en =   0.293921E-05 tol =   0.100000E-04
 Charges are converged, EXIT

%%%% DENSITY %%%%%%%%%%%%%%%%%%%%%%%%%%%%%%%%%%%%%%%%%%%%%%%%%%%%%%%%%%%%%%%%%%%
 density label              = velectrostatic                                                                  
 integral of density        =     -1355.669428    

%%%% CHARGES %%%%%%%%%%%%%%%%%%%%%%%%%%%%%%%%%%%%%%%%%%%%%%%%%%%%%%%%%%%%%%%%%%%
 total number of charges    =        100
 total charge               =      0.0000000

%%%% DENSITY %%%%%%%%%%%%%%%%%%%%%%%%%%%%%%%%%%%%%%%%%%%%%%%%%%%%%%%%%%%%%%%%%%%
 density label              = vsoftcavity                                                                     
 integral of density        =      4.602352699    

%%%% ELECTRONS %%%%%%%%%%%%%%%%%%%%%%%%%%%%%%%%%%%%%%%%%%%%%%%%%%%%%%%%%%%%%%%%%
 number of electrons        =         90
 total electronic charge    =     90.0000000
 number of spin components  =  1

%%%% BOUNDARY %%%%%%%%%%%%%%%%%%%%%%%%%%%%%%%%%%%%%%%%%%%%%%%%%%%%%%%%%%%%%%%%%%
 boundary label             = solvent              
 boundary mode              = full                 
 boundary is built as a function of a smooth density
 function type              =  2 
 using the modified SCCS function with parameters 
 rhomax                     =      0.0050000 
 rhomin                     =      0.0001000 
 volume of the QM region    =   1599.2096382 
 surface of the QM region   =    261.3749982 

%%%% DIELECTRIC %%%%%%%%%%%%%%%%%%%%%%%%%%%%%%%%%%%%%%%%%%%%%%%%%%%%%%%%%%%%%%%%%
 dielectric build on homogeneous background
 environment bulk permitt.  =    100.0000000 
 dielectric flags
 need gradient              =  F 
 need factor depend. sqrt   =  T 
 total dielectric charge    =     -0.0006206

%%%% DENSITY %%%%%%%%%%%%%%%%%%%%%%%%%%%%%%%%%%%%%%%%%%%%%%%%%%%%%%%%%%%%%%%%%%%
 density label              = vreference                                                                      
 integral of density        =    -0.2643000458E-11

%%%% COMPUTE ELECTROSTATIC POTENTIAL %%%%%%%%%%%%%%%%%%%%%%%%%%%%%%%%%%%%%%%%%%%
 Warning: bad guess with residual norm =   0.252437E+04, reset to no guess
 Iteration #          1
  pAp =    1270.48768888880       rzold =    1269.85322413719       alpha = 
  0.999500613223444     
 delta_qm =   0.569486E-01 delta_en =   0.252187E+04 tol =   0.100000E-04
 Iteration #          2
  pAp =    514.629080660188       rzold =    16.9508340477231       alpha = 
  3.293796383596873E-002
 delta_qm =   0.133831E-01 delta_en =   0.139275E+03 tol =   0.100000E-04
 Iteration #          3
  pAp =    2.20977478558556       rzold =   0.313322493991839       alpha = 
  0.141789333481246     
 delta_qm =   0.101053E-01 delta_en =   0.794058E+02 tol =   0.100000E-04
 Iteration #          4
  pAp =   6.248056183885786E-003  rzold =   1.199010254426234E-002  alpha = 
   1.91901324049962     
 delta_qm =   0.143174E-01 delta_en =   0.159400E+03 tol =   0.100000E-04
 Iteration #          5
  pAp =   0.634094555496272       rzold =  -5.042418088663153E-002  alpha = 
 -7.952154840245745E-002
 delta_qm =   0.214706E-01 delta_en =   0.358462E+03 tol =   0.100000E-04
 Iteration #          6
  pAp =  -0.158655137558153       rzold =   6.835320609742382E-002  alpha = 
 -0.430828822497915     
 delta_qm =   0.130855E-02 delta_en =   0.133149E+01 tol =   0.100000E-04
 Iteration #          7
  pAp =   9.020980072554538E-003  rzold =   2.884651840546918E-003  alpha = 
  0.319771445823630     
 delta_qm =   0.850826E-03 delta_en =   0.562909E+00 tol =   0.100000E-04
 Iteration #          8
  pAp =   9.064450303188800E-004  rzold =   3.843159512261328E-004  alpha = 
  0.423981530453020     
 delta_qm =   0.757996E-03 delta_en =   0.446776E+00 tol =   0.100000E-04
 Iteration #          9
  pAp =   2.318833742980346E-004  rzold =   1.175404785670192E-004  alpha = 
  0.506894808318370     
 delta_qm =   0.759495E-03 delta_en =   0.448545E+00 tol =   0.100000E-04
 Iteration #         10
  pAp =   8.987494379874335E-005  rzold =   1.006119205116836E-004  alpha = 
   1.11946574049586     
 delta_qm =   0.812272E-03 delta_en =   0.513049E+00 tol =   0.100000E-04
 Iteration #         11
  pAp =   1.067892668931074E-004  rzold =   2.198699478244588E-004  alpha = 
   2.05891429186925     
 delta_qm =   0.100366E-02 delta_en =   0.783295E+00 tol =   0.100000E-04
 Iteration #         12
  pAp =   9.385814439987315E-004  rzold =   6.433145214845079E-004  alpha = 
  0.685411506479109     
 delta_qm =   0.925573E-03 delta_en =   0.666158E+00 tol =   0.100000E-04
 Iteration #         13
  pAp =   3.251482511266464E-003  rzold =   4.017827587445996E-004  alpha = 
  0.123569097281752     
 delta_qm =   0.816920E-03 delta_en =   0.518937E+00 tol =   0.100000E-04
 Iteration #         14
  pAp =   5.454891027101716E-003  rzold =   9.079243274999567E-004  alpha = 
  0.166442248431561     
 delta_qm =   0.781358E-03 delta_en =   0.474741E+00 tol =   0.100000E-04
 Iteration #         15
  pAp =   9.460408268816596E-005  rzold =   6.931928380589620E-005  alpha = 
  0.732730362540341     
 delta_qm =   0.501816E-03 delta_en =   0.195815E+00 tol =   0.100000E-04
 Iteration #         16
  pAp =   1.106726333145099E-004  rzold =   5.729909954723280E-005  alpha = 
  0.517735033776598     
 delta_qm =   0.295504E-03 delta_en =   0.679019E-01 tol =   0.100000E-04
 Iteration #         17
  pAp =   1.002773529029667E-004  rzold =   4.701850042195063E-005  alpha = 
  0.468884539338090     
 delta_qm =   0.147946E-03 delta_en =   0.170202E-01 tol =   0.100000E-04
 Iteration #         18
  pAp =   2.319212693713511E-005  rzold =   1.327446446984629E-005  alpha = 
  0.572369429756410     
 delta_qm =   0.690234E-04 delta_en =   0.370467E-02 tol =   0.100000E-04
 Iteration #         19
  pAp =   3.103649219417174E-006  rzold =   1.624803574040145E-006  alpha = 
  0.523513921571737     
 delta_qm =   0.408931E-04 delta_en =   0.130034E-02 tol =   0.100000E-04
 Iteration #         20
  pAp =   4.123929197080087E-007  rzold =   2.326101324489250E-007  alpha = 
  0.564049772274516     
 delta_qm =   0.247998E-04 delta_en =   0.478248E-03 tol =   0.100000E-04
 Iteration #         21
  pAp =   6.816217386172009E-008  rzold =   5.148670860803342E-008  alpha = 
  0.755356023598719     
 delta_qm =   0.926689E-05 delta_en =   0.667766E-04 tol =   0.100000E-04
 Iteration #         22
  pAp =   3.098970372844042E-008  rzold =   1.815208148096444E-008  alpha = 
  0.585745563753344     
 delta_qm =   0.369244E-05 delta_en =   0.106019E-04 tol =   0.100000E-04
 Iteration #         23
  pAp =   8.960797318972947E-009  rzold =   3.893641924131599E-009  alpha = 
  0.434519584087398     
 delta_qm =   0.188571E-05 delta_en =   0.276506E-05 tol =   0.100000E-04
 Charges are converged, EXIT

%%%% DENSITY %%%%%%%%%%%%%%%%%%%%%%%%%%%%%%%%%%%%%%%%%%%%%%%%%%%%%%%%%%%%%%%%%%%
 density label              = velectrostatic                                                                  
 integral of density        =     -1356.237434    

%%%% CHARGES %%%%%%%%%%%%%%%%%%%%%%%%%%%%%%%%%%%%%%%%%%%%%%%%%%%%%%%%%%%%%%%%%%%
 total number of charges    =        100
 total charge               =      0.0000000

%%%% DENSITY %%%%%%%%%%%%%%%%%%%%%%%%%%%%%%%%%%%%%%%%%%%%%%%%%%%%%%%%%%%%%%%%%%%
 density label              = vsoftcavity                                                                     
 integral of density        =      4.359925010    

%%%% ELECTRONS %%%%%%%%%%%%%%%%%%%%%%%%%%%%%%%%%%%%%%%%%%%%%%%%%%%%%%%%%%%%%%%%%
 number of electrons        =         90
 total electronic charge    =     90.0000000
 number of spin components  =  1

%%%% BOUNDARY %%%%%%%%%%%%%%%%%%%%%%%%%%%%%%%%%%%%%%%%%%%%%%%%%%%%%%%%%%%%%%%%%%
 boundary label             = solvent              
 boundary mode              = full                 
[...]
 Iteration #          4
  pAp =   8.676463365872068E-003  rzold =   1.192984112784390E-002  alpha = 
   1.37496588469083     
 delta_qm =   0.113402E-01 delta_en =   0.999992E+02 tol =   0.100000E-04
 Iteration #          5
  pAp =   0.352127439240556       rzold =  -2.715731803384386E-002  alpha = 
 -7.712354962287210E-002
 delta_qm =   0.160725E-01 delta_en =   0.200874E+03 tol =   0.100000E-04
 Iteration #          6
  pAp =  -5.410240338370216E-002  rzold =   3.363728950486176E-002  alpha = 
 -0.621733738264845     
 delta_qm =   0.136879E-02 delta_en =   0.145691E+01 tol =   0.100000E-04
 Iteration #          7
  pAp =   1.023714585286632E-002  rzold =   3.257884350281623E-003  alpha = 
  0.318241470533453     
 delta_qm =   0.829262E-03 delta_en =   0.534737E+00 tol =   0.100000E-04
 Iteration #          8
  pAp =   9.497411095736789E-004  rzold =   3.954689736440171E-004  alpha = 
  0.416396604988001     
 delta_qm =   0.720197E-03 delta_en =   0.403329E+00 tol =   0.100000E-04
 Iteration #          9
  pAp =   2.430918337149494E-004  rzold =   1.161902705317689E-004  alpha = 
  0.477968629205431     
 delta_qm =   0.711067E-03 delta_en =   0.393167E+00 tol =   0.100000E-04
 Iteration #         10
  pAp =   8.164988301734816E-005  rzold =   8.708525039707623E-005  alpha = 
   1.06656919984286     
 delta_qm =   0.750350E-03 delta_en =   0.437808E+00 tol =   0.100000E-04
 Iteration #         11
  pAp =   9.286955130890400E-005  rzold =   1.807387351323513E-004  alpha = 
   1.94615708361910     
 delta_qm =   0.937706E-03 delta_en =   0.683737E+00 tol =   0.100000E-04
 Iteration #         12
  pAp =   7.679049738079690E-004  rzold =   5.605804548670505E-004  alpha = 
  0.730012793232976     
 delta_qm =   0.888598E-03 delta_en =   0.613998E+00 tol =   0.100000E-04
 Iteration #         13
  pAp =   4.756238157095581E-004  rzold =   3.109842356231458E-004  alpha = 
  0.653844961819678     
 delta_qm =   0.829750E-03 delta_en =   0.535366E+00 tol =   0.100000E-04
 Iteration #         14
  pAp =   3.248422815788465E-003  rzold =   1.825942151490743E-004  alpha = 
  5.621011349310899E-002
 delta_qm =   0.839066E-03 delta_en =   0.547454E+00 tol =   0.100000E-04
 Iteration #         15
  pAp =   2.403609662556664E-004  rzold =   1.230865262317458E-004  alpha = 
  0.512090328763371     
 delta_qm =   0.513172E-03 delta_en =   0.204777E+00 tol =   0.100000E-04
 Iteration #         16
  pAp =   8.445286814038021E-005  rzold =   5.964203418468543E-005  alpha = 
  0.706216798765751     
 delta_qm =   0.258665E-03 delta_en =   0.520272E-01 tol =   0.100000E-04
 Iteration #         17
  pAp =   1.454638095499835E-004  rzold =   5.254967297816368E-005  alpha = 
  0.361255993093642     
 delta_qm =   0.153530E-03 delta_en =   0.183291E-01 tol =   0.100000E-04
 Iteration #         18
  pAp =   3.492628899399545E-005  rzold =   1.714687183340385E-005  alpha = 
  0.490944567181236     
 delta_qm =   0.751247E-04 delta_en =   0.438856E-02 tol =   0.100000E-04
 Iteration #         19
  pAp =   3.808765294349537E-006  rzold =   1.978814062744354E-006  alpha = 
  0.519542137626597     
 delta_qm =   0.433763E-04 delta_en =   0.146305E-02 tol =   0.100000E-04
 Iteration #         20
  pAp =   5.073516034941766E-007  rzold =   2.830295677544496E-007  alpha = 
  0.557856850762271     
 delta_qm =   0.262621E-04 delta_en =   0.536307E-03 tol =   0.100000E-04
 Iteration #         21
  pAp =   8.536649541317790E-008  rzold =   6.385272345717784E-008  alpha = 
  0.747983423099749     
 delta_qm =   0.977708E-05 delta_en =   0.743318E-04 tol =   0.100000E-04
 Iteration #         22
  pAp =   3.696591775677916E-008  rzold =   2.196079784066477E-008  alpha = 
  0.594082310769557     
 delta_qm =   0.386042E-05 delta_en =   0.115884E-04 tol =   0.100000E-04
 Iteration #         23
  pAp =   7.919340717166806E-009  rzold =   4.582573550189539E-009  alpha = 
  0.578655940418862     
 delta_qm =   0.152170E-05 delta_en =   0.180058E-05 tol =   0.100000E-04
 Charges are converged, EXIT

%%%% DENSITY %%%%%%%%%%%%%%%%%%%%%%%%%%%%%%%%%%%%%%%%%%%%%%%%%%%%%%%%%%%%%%%%%%%
 density label              = velectrostatic                                                                  
 integral of density        =     -1352.280995    

%%%% CHARGES %%%%%%%%%%%%%%%%%%%%%%%%%%%%%%%%%%%%%%%%%%%%%%%%%%%%%%%%%%%%%%%%%%%
 total number of charges    =        100
 total charge               =      0.0000000

%%%% DENSITY %%%%%%%%%%%%%%%%%%%%%%%%%%%%%%%%%%%%%%%%%%%%%%%%%%%%%%%%%%%%%%%%%%%
 density label              = vsoftcavity                                                                     
 integral of density        =      4.455561380    

%%%% ELECTRONS %%%%%%%%%%%%%%%%%%%%%%%%%%%%%%%%%%%%%%%%%%%%%%%%%%%%%%%%%%%%%%%%%
 number of electrons        =         90
 total electronic charge    =     90.0000000
 number of spin components  =  1

%%%% BOUNDARY %%%%%%%%%%%%%%%%%%%%%%%%%%%%%%%%%%%%%%%%%%%%%%%%%%%%%%%%%%%%%%%%%%
 boundary label             = solvent              
 boundary mode              = full                 
 boundary is built as a function of a smooth density
 function type              =  2 
 using the modified SCCS function with parameters 
 rhomax                     =      0.0050000 
 rhomin                     =      0.0001000 
 volume of the QM region    =   1597.5153483 
 surface of the QM region   =    261.6192674 

%%%% DIELECTRIC %%%%%%%%%%%%%%%%%%%%%%%%%%%%%%%%%%%%%%%%%%%%%%%%%%%%%%%%%%%%%%%%%
 dielectric build on homogeneous background
 environment bulk permitt.  =    100.0000000 
 dielectric flags
 need gradient              =  F 
 need factor depend. sqrt   =  T 
 total dielectric charge    =     -0.0006927

%%%% DENSITY %%%%%%%%%%%%%%%%%%%%%%%%%%%%%%%%%%%%%%%%%%%%%%%%%%%%%%%%%%%%%%%%%%%
 density label              = vreference                                                                      
 integral of density        =    -0.2371565968E-11

%%%% COMPUTE ELECTROSTATIC POTENTIAL %%%%%%%%%%%%%%%%%%%%%%%%%%%%%%%%%%%%%%%%%%%
 Warning: bad guess with residual norm =   0.208748E+04, reset to no guess
 Iteration #          1
  pAp =    1270.91676880924       rzold =    1270.37667957982       alpha = 
  0.999575039654309     
 delta_qm =   0.517905E-01 delta_en =   0.208572E+04 tol =   0.100000E-04
 Iteration #          2
  pAp =    418.564061487604       rzold =    13.8974483085472       alpha = 
  3.320267932023309E-002
 delta_qm =   0.134212E-01 delta_en =   0.140067E+03 tol =   0.100000E-04
 Iteration #          3
  pAp =    2.53119725458937       rzold =   0.351938770787083       alpha = 
  0.139040436358318     
 delta_qm =   0.985195E-02 delta_en =   0.754746E+02 tol =   0.100000E-04
 Iteration #          4
  pAp =   7.758009707895973E-003  rzold =   1.200824707347059E-002  alpha = 
   1.54785151419040     
 delta_qm =   0.120584E-01 delta_en =   0.113066E+03 tol =   0.100000E-04
 Iteration #          5
  pAp =   0.429301403414198       rzold =  -3.612396845256607E-002  alpha = 
 -8.414593608424102E-002
 delta_qm =   0.179538E-01 delta_en =   0.250651E+03 tol =   0.100000E-04
 Iteration #          6
  pAp =  -9.461950549112078E-002  rzold =   4.775036843092200E-002  alpha = 
 -0.504656710929471     
 delta_qm =   0.133814E-02 delta_en =   0.139238E+01 tol =   0.100000E-04
 Iteration #          7
  pAp =   9.715973293297375E-003  rzold =   3.119793438882388E-003  alpha = 
  0.321099425112109     
 delta_qm =   0.814910E-03 delta_en =   0.516388E+00 tol =   0.100000E-04
 Iteration #          8
  pAp =   9.208717272033075E-004  rzold =   3.821421724316886E-004  alpha = 
  0.414978721946711     
 delta_qm =   0.707485E-03 delta_en =   0.389216E+00 tol =   0.100000E-04
 Iteration #          9
  pAp =   2.439314958960890E-004  rzold =   1.149073871364039E-004  alpha = 
  0.471064167889794     
 delta_qm =   0.696603E-03 delta_en =   0.377335E+00 tol =   0.100000E-04
 Iteration #         10
  pAp =   7.507452125373170E-005  rzold =   8.289191794663975E-005  alpha = 
   1.10412849209504     
 delta_qm =   0.734966E-03 delta_en =   0.420041E+00 tol =   0.100000E-04
 Iteration #         11
  pAp =   9.201591584488741E-005  rzold =   1.766510147473029E-004  alpha = 
   1.91978760549519     
 delta_qm =   0.915186E-03 delta_en =   0.651291E+00 tol =   0.100000E-04
 Iteration #         12
  pAp =   7.525478437986809E-004  rzold =   5.404386913265357E-004  alpha = 
  0.718145292395671     
 delta_qm =   0.854690E-03 delta_en =   0.568033E+00 tol =   0.100000E-04
 Iteration #         13
  pAp =   4.365549601176843E-004  rzold =   2.908475985681456E-004  alpha = 
  0.666233636401108     
 delta_qm =   0.804532E-03 delta_en =   0.503319E+00 tol =   0.100000E-04
 Iteration #         14
  pAp =   1.321584179802058E-004  rzold =   7.419277613979009E-005  alpha = 
  0.561392738152347     
 delta_qm =   0.646144E-03 delta_en =   0.324650E+00 tol =   0.100000E-04
 Iteration #         15
  pAp =   7.760296542822159E-003  rzold =   4.164117674410240E-004  alpha = 
  5.365925968720636E-002
 delta_qm =   0.483791E-03 delta_en =   0.182000E+00 tol =   0.100000E-04
 Iteration #         16
  pAp =   1.005739060626950E-004  rzold =   5.994137636399862E-005  alpha = 
  0.595993321832731     
 delta_qm =   0.260746E-03 delta_en =   0.528680E-01 tol =   0.100000E-04
 Iteration #         17
  pAp =   1.345906865701540E-004  rzold =   5.144932792777352E-005  alpha = 
  0.382265142105179     
 delta_qm =   0.148740E-03 delta_en =   0.172033E-01 tol =   0.100000E-04
 Iteration #         18
  pAp =   2.929428186346192E-005  rzold =   1.509875855256030E-005  alpha = 
  0.515416579349318     
 delta_qm =   0.706333E-04 delta_en =   0.387949E-02 tol =   0.100000E-04
 Iteration #         19
  pAp =   3.516786479259180E-006  rzold =   1.814389329957174E-006  alpha = 
  0.515922516381882     
 delta_qm =   0.410287E-04 delta_en =   0.130898E-02 tol =   0.100000E-04
 Iteration #         20
  pAp =   4.648637087657615E-007  rzold =   2.591177204115384E-007  alpha = 
  0.557405784804131     
 delta_qm =   0.249449E-04 delta_en =   0.483861E-03 tol =   0.100000E-04
 Iteration #         21
  pAp =   7.564393505590838E-008  rzold =   5.739579327989705E-008  alpha = 
  0.758762658731012     
 delta_qm =   0.911713E-05 delta_en =   0.646357E-04 tol =   0.100000E-04
 Iteration #         22
  pAp =   3.273216478464015E-008  rzold =   1.949582073203522E-008  alpha = 
  0.595616600988878     
 delta_qm =   0.364548E-05 delta_en =   0.103339E-04 tol =   0.100000E-04
 Iteration #         23
  pAp =   7.162247928390823E-009  rzold =   4.110347022610015E-009  alpha = 
  0.573890636530018     
 delta_qm =   0.145145E-05 delta_en =   0.163818E-05 tol =   0.100000E-04
 Charges are converged, EXIT

%%%% DENSITY %%%%%%%%%%%%%%%%%%%%%%%%%%%%%%%%%%%%%%%%%%%%%%%%%%%%%%%%%%%%%%%%%%%
 density label              = velectrostatic                                                                  
 integral of density        =     -1355.726352    

%%%% CHARGES %%%%%%%%%%%%%%%%%%%%%%%%%%%%%%%%%%%%%%%%%%%%%%%%%%%%%%%%%%%%%%%%%%%
 total number of charges    =        100
 total charge               =      0.0000000

%%%% DENSITY %%%%%%%%%%%%%%%%%%%%%%%%%%%%%%%%%%%%%%%%%%%%%%%%%%%%%%%%%%%%%%%%%%%
 density label              = vsoftcavity                                                                     
 integral of density        =      4.332750104    

%%%% ELECTRONS %%%%%%%%%%%%%%%%%%%%%%%%%%%%%%%%%%%%%%%%%%%%%%%%%%%%%%%%%%%%%%%%%
 number of electrons        =         90
 total electronic charge    =     90.0000000
 number of spin components  =  1

%%%% BOUNDARY %%%%%%%%%%%%%%%%%%%%%%%%%%%%%%%%%%%%%%%%%%%%%%%%%%%%%%%%%%%%%%%%%%
 boundary label             = solvent              
 boundary mode              = full                 
 boundary is built as a function of a smooth density
 function type              =  2 
 using the modified SCCS function with parameters 
 rhomax                     =      0.0050000 
 rhomin                     =      0.0001000 
 volume of the QM region    =   1596.5860967 
 surface of the QM region   =    262.1244884 

%%%% DIELECTRIC %%%%%%%%%%%%%%%%%%%%%%%%%%%%%%%%%%%%%%%%%%%%%%%%%%%%%%%%%%%%%%%%%
 dielectric build on homogeneous background
 environment bulk permitt.  =    100.0000000 
 dielectric flags
 need gradient              =  F 
 need factor depend. sqrt   =  T 
 total dielectric charge    =     -0.0007215

%%%% DENSITY %%%%%%%%%%%%%%%%%%%%%%%%%%%%%%%%%%%%%%%%%%%%%%%%%%%%%%%%%%%%%%%%%%%
 density label              = vreference                                                                      
 integral of density        =    -0.6608789836E-11

%%%% COMPUTE ELECTROSTATIC POTENTIAL %%%%%%%%%%%%%%%%%%%%%%%%%%%%%%%%%%%%%%%%%%%
 Warning: bad guess with residual norm =   0.194044E+04, reset to no guess
 Iteration #          1
  pAp =    1270.99038521179       rzold =    1270.48738429889       alpha = 
  0.999604244911091     
 delta_qm =   0.499346E-01 delta_en =   0.193892E+04 tol =   0.100000E-04
 Iteration #          2
  pAp =    381.615400178236       rzold =    12.7097415779016       alpha = 
  3.330510658627869E-002
 delta_qm =   0.135297E-01 delta_en =   0.142341E+03 tol =   0.100000E-04
 Iteration #          3
  pAp =    2.67911029875372       rzold =   0.368842372643023       alpha = 
  0.137673455555228     
 delta_qm =   0.984821E-02 delta_en =   0.754172E+02 tol =   0.100000E-04
 Iteration #          4
  pAp =   8.321022434491343E-003  rzold =   1.214943147539950E-002  alpha = 
   1.46008877767702     
 delta_qm =   0.117591E-01 delta_en =   0.107523E+03 tol =   0.100000E-04
 Iteration #          5
  pAp =   0.402421549174798       rzold =  -3.135039563564794E-002  alpha = 
 -7.790436595638278E-002
 delta_qm =   0.168932E-01 delta_en =   0.221911E+03 tol =   0.100000E-04
 Iteration #          6
  pAp =  -6.949151187023594E-002  rzold =   3.970403715558244E-002  alpha = 
 -0.571350890015506     
 delta_qm =   0.137775E-02 delta_en =   0.147603E+01 tol =   0.100000E-04
 Iteration #          7
  pAp =   1.014654434476940E-002  rzold =   3.277775629762652E-003  alpha = 
  0.323043542548785     
 delta_qm =   0.804650E-03 delta_en =   0.503466E+00 tol =   0.100000E-04
 Iteration #          8
  pAp =   9.223787932465581E-004  rzold =   3.803072170112147E-004  alpha = 
  0.412311319162729     
 delta_qm =   0.687576E-03 delta_en =   0.367618E+00 tol =   0.100000E-04
 Iteration #          9
  pAp =   2.486211618125797E-004  rzold =   1.137277266691036E-004  alpha = 
  0.457433815528688     
 delta_qm =   0.673742E-03 delta_en =   0.352974E+00 tol =   0.100000E-04
 Iteration #         10
  pAp =   7.046884568047637E-005  rzold =   7.642039730455112E-005  alpha = 
   1.08445649373995     
 delta_qm =   0.707593E-03 delta_en =   0.389335E+00 tol =   0.100000E-04
 Iteration #         11
  pAp =   8.368032041321611E-005  rzold =   1.591396934072146E-004  alpha = 
   1.90175769668875     
 delta_qm =   0.894988E-03 delta_en =   0.622860E+00 tol =   0.100000E-04
 Iteration #         12
  pAp =   6.931010700417723E-004  rzold =   5.032623921580381E-004  alpha = 
  0.726102460248268     
 delta_qm =   0.821487E-03 delta_en =   0.524756E+00 tol =   0.100000E-04
 Iteration #         13
  pAp =   4.281619354906258E-003  rzold =   4.189227471757576E-004  alpha = 
  9.784212758093942E-002
 delta_qm =   0.964073E-03 delta_en =   0.722730E+00 tol =   0.100000E-04
 Iteration #         14
  pAp =   3.108171320867956E-003  rzold =   7.243148701860302E-004  alpha = 
  0.233035697010345     
 delta_qm =   0.829722E-03 delta_en =   0.535330E+00 tol =   0.100000E-04
 Iteration #         15
  pAp =   9.748523905649414E-005  rzold =   7.795060754875868E-005  alpha = 
  0.799614467823022     
 delta_qm =   0.542730E-03 delta_en =   0.229046E+00 tol =   0.100000E-04
 Iteration #         16
  pAp =   1.537040956122345E-004  rzold =   7.682007735626409E-005  alpha = 
  0.499792000013234     
 delta_qm =   0.323161E-03 delta_en =   0.812073E-01 tol =   0.100000E-04
 Iteration #         17
  pAp =   1.233057562948199E-004  rzold =   6.111018089567333E-005  alpha = 
  0.495598767907972     
 delta_qm =   0.161334E-03 delta_en =   0.202398E-01 tol =   0.100000E-04
 Iteration #         18
  pAp =   3.028545805014427E-005  rzold =   1.687145459993923E-005  alpha = 
  0.557081044374657     
 delta_qm =   0.759733E-04 delta_en =   0.448826E-02 tol =   0.100000E-04
 Iteration #         19
  pAp =   3.952294452679211E-006  rzold =   2.065833374778559E-006  alpha = 
  0.522692172739851     
 delta_qm =   0.433326E-04 delta_en =   0.146011E-02 tol =   0.100000E-04
 Iteration #         20
  pAp =   5.280292533541113E-007  rzold =   2.934816959697988E-007  alpha = 
  0.555805751491162     
 delta_qm =   0.263106E-04 delta_en =   0.538291E-03 tol =   0.100000E-04
 Iteration #         21
  pAp =   9.040587900612677E-008  rzold =   6.749209627003955E-008  alpha = 
  0.746545435009438     
 delta_qm =   0.967924E-05 delta_en =   0.728515E-04 tol =   0.100000E-04
 Iteration #         22
  pAp =   3.845133021658196E-008  rzold =   2.292898923845867E-008  alpha = 
  0.596311989970392     
 delta_qm =   0.397029E-05 delta_en =   0.122575E-04 tol =   0.100000E-04
 Iteration #         23
  pAp =   2.134198466706255E-008  rzold =   5.150577524441891E-009  alpha = 
  0.241335452386060     
 delta_qm =   0.265518E-05 delta_en =   0.548207E-05 tol =   0.100000E-04
 Charges are converged, EXIT

%%%% DENSITY %%%%%%%%%%%%%%%%%%%%%%%%%%%%%%%%%%%%%%%%%%%%%%%%%%%%%%%%%%%%%%%%%%%
 density label              = velectrostatic                                                                  
 integral of density        =     -1358.017850    

%%%% CHARGES %%%%%%%%%%%%%%%%%%%%%%%%%%%%%%%%%%%%%%%%%%%%%%%%%%%%%%%%%%%%%%%%%%%
 total number of charges    =        100
 total charge               =      0.0000000

%%%% DENSITY %%%%%%%%%%%%%%%%%%%%%%%%%%%%%%%%%%%%%%%%%%%%%%%%%%%%%%%%%%%%%%%%%%%
 density label              = vsoftcavity                                                                     
 integral of density        =      4.357727158    

%%%% ELECTRONS %%%%%%%%%%%%%%%%%%%%%%%%%%%%%%%%%%%%%%%%%%%%%%%%%%%%%%%%%%%%%%%%%
 number of electrons        =         90
 total electronic charge    =     90.0000000
 number of spin components  =  1

%%%% BOUNDARY %%%%%%%%%%%%%%%%%%%%%%%%%%%%%%%%%%%%%%%%%%%%%%%%%%%%%%%%%%%%%%%%%%
 boundary label             = solvent              
 boundary mode              = full                 
 boundary is built as a function of a smooth density
 function type              =  2 
 using the modified SCCS function with parameters 
 rhomax                     =      0.0050000 
 rhomin                     =      0.0001000 
 volume of the QM region    =   1596.5860967 
 surface of the QM region   =    262.1244884 

%%%% DIELECTRIC %%%%%%%%%%%%%%%%%%%%%%%%%%%%%%%%%%%%%%%%%%%%%%%%%%%%%%%%%%%%%%%%%
 dielectric build on homogeneous background
 environment bulk permitt.  =    100.0000000 
 dielectric flags
 need gradient              =  F 
 need factor depend. sqrt   =  T 
 total dielectric charge    =     -0.0007034

%%%% DENSITY %%%%%%%%%%%%%%%%%%%%%%%%%%%%%%%%%%%%%%%%%%%%%%%%%%%%%%%%%%%%%%%%%%%
 density label              = vreference                                                                      
 integral of density        =    -0.6608789836E-11

%%%% DENSITY %%%%%%%%%%%%%%%%%%%%%%%%%%%%%%%%%%%%%%%%%%%%%%%%%%%%%%%%%%%%%%%%%%%
 density label              = velectrostatic                                                                  
 integral of density        =     -1358.017850    

%%%% CHARGES %%%%%%%%%%%%%%%%%%%%%%%%%%%%%%%%%%%%%%%%%%%%%%%%%%%%%%%%%%%%%%%%%%%
 total number of charges    =        100
 total charge               =      0.0000000

%%%% DENSITY %%%%%%%%%%%%%%%%%%%%%%%%%%%%%%%%%%%%%%%%%%%%%%%%%%%%%%%%%%%%%%%%%%%
 density label              = vsoftcavity                                                                     
 integral of density        =      4.357727158    
