
     Program PWSCF v.6.1 (svn rev. 13369) starts on  7Nov2017 at 16:49:20 

     This program is part of the open-source Quantum ESPRESSO suite
     for quantum simulation of materials; please cite
         "P. Giannozzi et al., J. Phys.:Condens. Matter 21 395502 (2009);
          URL http://www.quantum-espresso.org", 
     in publications or presentations arising from this work. More details at
     http://www.quantum-espresso.org/quote

     Serial version
     Reading input from charged.in

     Current dimensions of program PWSCF are:
     Max number of different atomic species (ntypx) = 10
     Max number of k-points (npk) =  40000
     Max angular momentum in pseudopotentials (lmaxx) =  3
     Message from routine  environ_checkin    :
      use some old legacy code for environ
               file C.pbe-rrkjus.UPF: wavefunction(s)  2S 2P renormalized
               file O.pbe-rrkjus.UPF: wavefunction(s)  2S renormalized

     gamma-point specific algorithms are used

     G-vector sticks info
     --------------------
     sticks:   dense  smooth     PW     G-vecs:    dense   smooth      PW
     Sum        2205    1099    269               330909   116965   14571



     bravais-lattice index     =            8
     lattice parameter (alat)  =      10.6881  a.u.
     unit-cell volume          =    4181.1215 (a.u.)^3
     number of atoms/cell      =           10
     number of atomic types    =            3
     number of electrons       =        89.00
     number of Kohn-Sham states=           80
     kinetic-energy cutoff     =      35.0000  Ry
     charge density cutoff     =     280.0000  Ry
     convergence threshold     =      5.0E-02
     mixing beta               =       0.7000
     number of iterations used =            8  plain     mixing
     Exchange-correlation      = PBE ( 1  4  3  4 0 0)


     Environ Module
     ==============

     Plese cite
         O. Andreussi, I. Dabo and N. Marzari, J. Chem. Phys. 136, 064102 (2012)         
     in publications or presentations arising from this work.

     compensation onset threshold      =               0.1000E+03 
     switching function adopted        =                     SCCS 
     density limit for vacuum region   =               0.5000E-02 
     density limit for bulk solvent    =               0.1000E-03 
     static permittivity               =                   100.00 
     epsilon calculation mode          =                     full 

     Electrostatic Setup
     -------------------
     electrostatic problem to solve    = generalized              
     numerical solver adopted          = iterative                
     type of auxiliary density adopted = full                     
     type of core tool for poisson     = fft                      
     type of core tool for s(r) deriv  = fd                       
     type of numerical differentiator  =            central diff. 
     number of points in num. diff.    =                        2 



     celldm(1)=  10.688100  celldm(2)=   0.866025  celldm(3)=   3.954220
     celldm(4)=   0.000000  celldm(5)=   0.000000  celldm(6)=   0.000000

     crystal axes: (cart. coord. in units of alat)
               a(1) = (   1.000000   0.000000   0.000000 )  
               a(2) = (   0.000000   0.866025   0.000000 )  
               a(3) = (   0.000000   0.000000   3.954220 )  

     reciprocal axes: (cart. coord. in units 2 pi/alat)
               b(1) = (  1.000000  0.000000  0.000000 )  
               b(2) = (  0.000000  1.154701  0.000000 )  
               b(3) = (  0.000000  0.000000  0.252894 )  


     PseudoPot. # 1 for C  read from file:
     /Users/oliviero/PWSCF/espresso-6.1-Environ-1.0/Environ/tests/../..//pseudo/C.pbe-rrkjus.UPF
     MD5 check sum: 00fb224312de0c5b6853bd333518df6f
     Pseudo is Ultrasoft, Zval =  4.0
     Generated by new atomic code, or converted to UPF format
     Using radial grid of  627 points,  4 beta functions with: 
                l(1) =   0
                l(2) =   0
                l(3) =   1
                l(4) =   1
     Q(r) pseudized with 0 coefficients 


     PseudoPot. # 2 for O  read from file:
     /Users/oliviero/PWSCF/espresso-6.1-Environ-1.0/Environ/tests/../..//pseudo/O.pbe-rrkjus.UPF
     MD5 check sum: 390ba29e75625707450f3bd3f0eb6be9
     Pseudo is Ultrasoft, Zval =  6.0
     Generated by new atomic code, or converted to UPF format
     Using radial grid of 1269 points,  4 beta functions with: 
                l(1) =   0
                l(2) =   0
                l(3) =   1
                l(4) =   1
     Q(r) pseudized with 0 coefficients 


     PseudoPot. # 3 for Pt read from file:
     /Users/oliviero/PWSCF/espresso-6.1-Environ-1.0/Environ/tests/../..//pseudo/Pt.pbe-n-rrkjus_psl.0.1.UPF
     MD5 check sum: df5be8f5ed4f66d4aed38ca70ec8d507
     Pseudo is Ultrasoft + core correction, Zval = 10.0
     Generated using "atomic" code by A. Dal Corso  v.5.0.2 svn rev. 9415
     Using radial grid of 1277 points,  6 beta functions with: 
                l(1) =   0
                l(2) =   0
                l(3) =   1
                l(4) =   1
                l(5) =   2
                l(6) =   2
     Q(r) pseudized with 0 coefficients 


     atomic species   valence    mass     pseudopotential
        C              4.00     1.00000     C ( 1.00)
        O              6.00     1.00000     O ( 1.00)
        Pt            10.00     1.00000     Pt( 1.00)

     No symmetry found



   Cartesian axes

     site n.     atom                  positions (alat units)
         1           C   tau(   1) = (   0.4991611   0.4347567   1.2070461  )
         2           O   tau(   2) = (   0.4991542   0.4322212   1.4109013  )
         3           Pt  tau(   3) = (   0.7542339   0.0091745   0.8413229  )
         4           Pt  tau(   4) = (   0.2441023   0.0091745   0.8413226  )
         5           Pt  tau(   5) = (   0.0000034   0.4416918   0.8391348  )
         6           Pt  tau(   6) = (   0.4991682   0.4417635   0.8776299  )
         7           Pt  tau(   7) = (   0.0000038   0.7300598   0.4308181  )
         8           Pt  tau(   8) = (   0.4991683   0.7202168   0.4447460  )
         9           Pt  tau(   9) = (   0.2524172   0.2949237   0.4386572  )
        10           Pt  tau(  10) = (   0.7459196   0.2949237   0.4386575  )

     number of k points=     1  Marzari-Vanderbilt smearing, width (Ry)=  0.0300
                       cart. coord. in units 2pi/alat
        k(    1) = (   0.0000000   0.0000000   0.0000000), wk =   2.0000000

     Dense  grid:   165455 G-vectors     FFT dimensions: (  60,  50, 225)

     Smooth grid:    58483 G-vectors     FFT dimensions: (  45,  36, 160)

     Estimated max dynamical RAM per process >     216.67MB

     Initial potential from superposition of free atoms
     Check: negative starting charge=   -0.001782

     starting charge   89.99859, renormalised to   89.00000

     negative rho (up, down):  1.762E-03 0.000E+00
     Starting wfc are   80 randomized atomic wfcs

     total cpu time spent up to now is       11.9 secs

     Self-consistent Calculation

     iteration #  1     ecut=    35.00 Ry     beta=0.70
     Davidson diagonalization with overlap
     ethr =  1.00E-02,  avg # of iterations =  5.0

     negative rho (up, down):  1.526E-03 0.000E+00

     add environment contribution to local potential
     polarization accuracy = 7.9E-12, # of iterations =  42

     total cpu time spent up to now is       25.6 secs

     total energy              =    -622.68843633 Ry
     Harris-Foulkes estimate   =    -624.21108732 Ry
     estimated scf accuracy    <       1.86594048 Ry
     electrostatic embedding   =       0.03381190 Ry
     correction to one-el term =       0.00000000 Ry

     iteration #  2     ecut=    35.00 Ry     beta=0.70
     Davidson diagonalization with overlap
     ethr =  2.10E-03,  avg # of iterations = 17.0

     negative rho (up, down):  2.241E-02 0.000E+00

     total cpu time spent up to now is       33.2 secs

     total energy              =    -613.05711891 Ry
     Harris-Foulkes estimate   =    -641.34974915 Ry
     estimated scf accuracy    <     312.86786452 Ry
     electrostatic embedding   =       0.05288283 Ry
     correction to one-el term =       5.27734883 Ry

     iteration #  3     ecut=    35.00 Ry     beta=0.70
     Davidson diagonalization with overlap
     ethr =  2.10E-03,  avg # of iterations =  7.0

     negative rho (up, down):  1.033E-02 0.000E+00

     add environment contribution to local potential
     polarization accuracy = 9.2E-12, # of iterations =  46

     total cpu time spent up to now is       48.1 secs

     total energy              =    -623.75594065 Ry
     Harris-Foulkes estimate   =    -630.12264064 Ry
     estimated scf accuracy    <       7.49639164 Ry
     electrostatic embedding   =       0.14099745 Ry
     correction to one-el term =       5.24223361 Ry

     iteration #  4     ecut=    35.00 Ry     beta=0.70
     Davidson diagonalization with overlap
     ethr =  2.10E-03,  avg # of iterations =  7.0

     negative rho (up, down):  6.151E-03 0.000E+00

     add environment contribution to local potential
     polarization accuracy = 8.4E-12, # of iterations =  41

     total cpu time spent up to now is       61.9 secs

     total energy              =    -623.21285183 Ry
     Harris-Foulkes estimate   =    -630.99099018 Ry
     estimated scf accuracy    <      33.25870730 Ry
     electrostatic embedding   =       0.16379973 Ry
     correction to one-el term =       5.80536009 Ry

     iteration #  5     ecut=    35.00 Ry     beta=0.70
     Davidson diagonalization with overlap
     ethr =  2.10E-03,  avg # of iterations =  4.0

     negative rho (up, down):  3.353E-03 0.000E+00

     add environment contribution to local potential
     polarization accuracy = 8.5E-12, # of iterations =  44

     total cpu time spent up to now is       75.6 secs

     total energy              =    -623.88103362 Ry
     Harris-Foulkes estimate   =    -627.71867548 Ry
     estimated scf accuracy    <       4.70306729 Ry
     electrostatic embedding   =       0.12502772 Ry
     correction to one-el term =       3.43914533 Ry

     iteration #  6     ecut=    35.00 Ry     beta=0.70
     Davidson diagonalization with overlap
     ethr =  2.10E-03,  avg # of iterations =  3.0

     negative rho (up, down):  4.469E-03 0.000E+00

     add environment contribution to local potential
     polarization accuracy = 7.7E-12, # of iterations =  38

     total cpu time spent up to now is       88.1 secs

     total energy              =    -624.58167200 Ry
     Harris-Foulkes estimate   =    -625.22819864 Ry
     estimated scf accuracy    <       4.77276977 Ry
     electrostatic embedding   =       0.10086133 Ry
     correction to one-el term =       0.47001461 Ry

     iteration #  7     ecut=    35.00 Ry     beta=0.70
     Davidson diagonalization with overlap
     ethr =  2.10E-03,  avg # of iterations =  1.0

     negative rho (up, down):  4.521E-03 0.000E+00

     add environment contribution to local potential
     polarization accuracy = 9.4E-12, # of iterations =  44

     total cpu time spent up to now is      101.6 secs

     total energy              =    -624.82377886 Ry
     Harris-Foulkes estimate   =    -624.44295577 Ry
     estimated scf accuracy    <       3.92939351 Ry
     electrostatic embedding   =       0.08008797 Ry
     correction to one-el term =      -0.53431175 Ry

     iteration #  8     ecut=    35.00 Ry     beta=0.70
     Davidson diagonalization with overlap
     ethr =  2.10E-03,  avg # of iterations =  2.0

     negative rho (up, down):  3.871E-03 0.000E+00

     add environment contribution to local potential
     polarization accuracy = 8.4E-12, # of iterations =  44

     total cpu time spent up to now is      115.2 secs

     total energy              =    -624.95748463 Ry
     Harris-Foulkes estimate   =    -622.47286766 Ry
     estimated scf accuracy    <       3.35446636 Ry
     electrostatic embedding   =       0.05003914 Ry
     correction to one-el term =      -2.60719560 Ry

     iteration #  9     ecut=    35.00 Ry     beta=0.70
     Davidson diagonalization with overlap
     ethr =  2.10E-03,  avg # of iterations =  1.0

     negative rho (up, down):  3.099E-03 0.000E+00

     add environment contribution to local potential
     polarization accuracy = 7.8E-12, # of iterations =  43

     total cpu time spent up to now is      128.5 secs

     total energy              =    -624.66133240 Ry
     Harris-Foulkes estimate   =    -620.99986093 Ry
     estimated scf accuracy    <       2.34316221 Ry
     electrostatic embedding   =       0.02580600 Ry
     correction to one-el term =      -3.75174180 Ry

     iteration # 10     ecut=    35.00 Ry     beta=0.70
     Davidson diagonalization with overlap
     ethr =  2.10E-03,  avg # of iterations =  1.0

     negative rho (up, down):  1.865E-03 0.000E+00

     add environment contribution to local potential
     polarization accuracy = 9.6E-12, # of iterations =  42

     total cpu time spent up to now is      142.3 secs

     total energy              =    -624.29398707 Ry
     Harris-Foulkes estimate   =    -619.93465559 Ry
     estimated scf accuracy    <       1.04547438 Ry
     electrostatic embedding   =       0.00495454 Ry
     correction to one-el term =      -4.41909535 Ry

     iteration # 11     ecut=    35.00 Ry     beta=0.70
     Davidson diagonalization with overlap
     ethr =  1.17E-03,  avg # of iterations =  6.0

     negative rho (up, down):  3.343E-03 0.000E+00

     add environment contribution to local potential
     polarization accuracy = 9.0E-12, # of iterations =  44

     total cpu time spent up to now is      156.9 secs

     total energy              =    -623.77168988 Ry
     Harris-Foulkes estimate   =    -618.92083816 Ry
     estimated scf accuracy    <       0.11921313 Ry
     electrostatic embedding   =       0.08392494 Ry
     correction to one-el term =      -5.00879233 Ry

     iteration # 12     ecut=    35.00 Ry     beta=0.70
     Davidson diagonalization with overlap
     ethr =  1.34E-04,  avg # of iterations = 10.0

     negative rho (up, down):  3.054E-03 0.000E+00

     add environment contribution to local potential
     polarization accuracy = 8.8E-12, # of iterations =  45

     total cpu time spent up to now is      172.2 secs

     total energy              =    -623.65412138 Ry
     Harris-Foulkes estimate   =    -627.62015074 Ry
     estimated scf accuracy    <       1.60731353 Ry
     electrostatic embedding   =       0.16748925 Ry
     correction to one-el term =       3.67619922 Ry

     iteration # 13     ecut=    35.00 Ry     beta=0.70
     Davidson diagonalization with overlap
     ethr =  1.34E-04,  avg # of iterations =  7.0

     negative rho (up, down):  2.569E-03 0.000E+00

     add environment contribution to local potential
     polarization accuracy = 9.7E-12, # of iterations =  41

     total cpu time spent up to now is      185.8 secs

     total energy              =    -623.65898515 Ry
     Harris-Foulkes estimate   =    -630.11064856 Ry
     estimated scf accuracy    <       0.27161213 Ry
     electrostatic embedding   =       0.18434674 Ry
     correction to one-el term =       6.19721213 Ry

     iteration # 14     ecut=    35.00 Ry     beta=0.70
     Davidson diagonalization with overlap
     ethr =  1.34E-04,  avg # of iterations =  7.0

     negative rho (up, down):  1.972E-03 0.000E+00

     add environment contribution to local potential
     polarization accuracy = 7.6E-12, # of iterations =  38

     total cpu time spent up to now is      198.6 secs

     total energy              =    -623.69606906 Ry
     Harris-Foulkes estimate   =    -630.09085653 Ry
     estimated scf accuracy    <       0.06686353 Ry
     electrostatic embedding   =       0.18950928 Ry
     correction to one-el term =       6.19172939 Ry

     iteration # 15     ecut=    35.00 Ry     beta=0.70
     Davidson diagonalization with overlap
     ethr =  7.51E-05,  avg # of iterations =  5.0

     negative rho (up, down):  2.093E-03 0.000E+00

     total cpu time spent up to now is      203.3 secs

     End of self-consistent calculation

          k = 0.0000 0.0000 0.0000 (  7286 PWs)   bands (ev):

   -29.4627 -16.0885 -14.4916 -13.1524 -12.9995 -12.3919 -12.3515 -12.3134
   -12.1071 -11.3041 -11.1930 -11.0617 -10.8688 -10.8223 -10.7151 -10.5903
    -9.9110  -9.8658  -9.8115  -9.6093  -9.5654  -9.5135  -9.4609  -9.4440
    -9.4129  -9.2602  -9.2174  -9.1431  -9.0176  -8.7907  -8.6857  -7.9343
    -7.8045  -7.5302  -7.3086  -7.2438  -7.1754  -7.0350  -6.8786  -6.7429
    -6.5635  -6.5606  -6.3612  -6.3154  -6.2713  -6.0917  -5.9516  -4.8670
    -4.5413  -4.4809  -3.8804  -3.1887  -3.0211  -2.0329  -1.7336  -1.6952
    -0.3629  -0.3330  -0.0428   0.2834   0.7133   1.0814   1.2984   1.3204
     2.1950   2.4003   2.5968   2.7392   2.8949   3.1986   4.0205   4.3465
     4.4992   4.6534   4.8496   5.2064   5.2646   5.3603   5.4957   5.6604

     the Fermi energy is    -6.1841 ev

!    total energy              =    -623.67991861 Ry
     Harris-Foulkes estimate   =    -631.30035708 Ry
     estimated scf accuracy    <       0.02086337 Ry

     The total energy is the sum of the following terms:

     one-electron contribution =   -3948.97896730 Ry
     hartree contribution      =    2007.31383700 Ry
     xc contribution           =    -262.82123503 Ry
     ewald contribution        =    1573.20467954 Ry
     smearing contrib. (-TS)   =      -0.00039004 Ry
     electrostatic embedding   =       0.19691935 Ry
     correction to one-el term =       7.40523787 Ry

     convergence has been achieved in  15 iterations

     negative rho (up, down):  2.093E-03 0.000E+00

     Forces acting on atoms (cartesian axes, Ry/au):

     atom    1 type  1   force =     0.00082738   -0.00430120    0.08089179
     atom    2 type  2   force =    -0.00088750    0.00161766   -0.03436185
     atom    3 type  3   force =     0.00353753    0.00961070    0.06054984
     atom    4 type  3   force =    -0.00149197    0.01423417    0.04400618
     atom    5 type  3   force =     0.01150436    0.00926376    0.02059454
     atom    6 type  3   force =    -0.01215852    0.01161787    0.03884245
     atom    7 type  3   force =     0.01346789   -0.00934561   -0.06084146
     atom    8 type  3   force =    -0.01495348   -0.01955013   -0.04114021
     atom    9 type  3   force =     0.02328167   -0.00852852   -0.05106458
     atom   10 type  3   force =    -0.02312736   -0.00461870   -0.05747671

     Total force =     0.171593     Total SCF correction =     0.449651
     SCF correction compared to forces is large: reduce conv_thr to get better values

     Writing output data file pwscf.save

     init_run     :     11.08s CPU     11.42s WALL (       1 calls)
     electrons    :    186.97s CPU    191.52s WALL (       1 calls)
     forces       :      7.29s CPU      7.57s WALL (       1 calls)

     Called by init_run:
     wfcinit      :      0.59s CPU      0.50s WALL (       1 calls)
     potinit      :      2.65s CPU      2.71s WALL (       1 calls)

     Called by electrons:
     c_bands      :     33.75s CPU     25.35s WALL (      15 calls)
     sum_band     :     22.85s CPU     22.72s WALL (      15 calls)
     v_of_rho     :      8.42s CPU      9.07s WALL (      16 calls)
     newd         :     12.59s CPU     16.20s WALL (      16 calls)
     mix_rho      :      0.91s CPU      1.20s WALL (      15 calls)

     Called by c_bands:
     init_us_2    :      0.22s CPU      0.26s WALL (      31 calls)
     regterg      :     32.61s CPU     24.16s WALL (      15 calls)

     Called by sum_band:
     sum_band:bec :      0.00s CPU      0.00s WALL (      15 calls)
     addusdens    :     18.26s CPU     18.16s WALL (      15 calls)

     Called by *egterg:
     h_psi        :     20.07s CPU     17.89s WALL (      99 calls)
     s_psi        :      2.57s CPU      0.73s WALL (      99 calls)
     g_psi        :      0.15s CPU      0.15s WALL (      83 calls)
     rdiaghg      :      1.56s CPU      1.48s WALL (      98 calls)

     Called by h_psi:
     h_psi:pot    :     19.94s CPU     17.75s WALL (      99 calls)
     h_psi:calbec :      1.37s CPU      0.72s WALL (      99 calls)
     vloc_psi     :     15.93s CPU     16.28s WALL (      99 calls)
     add_vuspsi   :      2.64s CPU      0.75s WALL (      99 calls)

     General routines
     calbec       :      1.87s CPU      0.98s WALL (     118 calls)
     fft          :     48.39s CPU     49.11s WALL (    2640 calls)
     ffts         :      0.19s CPU      0.20s WALL (      31 calls)
     fftw         :     15.69s CPU     16.03s WALL (    4154 calls)
     interpolate  :      0.95s CPU      1.09s WALL (      31 calls)
     davcio       :      0.00s CPU      0.00s WALL (       1 calls)


     Environ routines
     calc_eelect  :      0.03s CPU      0.03s WALL (      30 calls)
     calc_velect  :    102.79s CPU    111.05s WALL (      26 calls)
     dielectric   :      0.79s CPU      0.93s WALL (      17 calls)
     calc_felect  :      0.15s CPU      0.16s WALL (       1 calls)

     PWSCF        :  3m25.82s CPU     3m31.24s WALL


   This run was terminated on:  16:52:51   7Nov2017            

=------------------------------------------------------------------------------=
   JOB DONE.
=------------------------------------------------------------------------------=

%%%% IONS %%%%%%%%%%%%%%%%%%%%%%%%%%%%%%%%%%%%%%%%%%%%%%%%%%%%%%%%%%%%%%%%%%%%%%
 number of ions             =         10
 ionic center of charge     =      0.3882415     0.3750182     0.7201831
 total ionic charge         =    -90.0000000
 ionic dipole               =      0.0000000     0.0000000     0.0000000
 ionic quadrupole (pc)      =   -730.5101255  -614.6110457  -876.7220256
 ionic quadrupole (gauss)   =   -741.7601255  -625.8610457  -887.9720256
 ion   1 type =  1 coordinates =      5.3350841     4.6467234    12.9010299
 ion   2 type =  2 coordinates =      5.3350096     4.6196233    15.0798543
 ion   3 type =  3 coordinates =      8.0613271     0.0980580     8.9921429
 ion   4 type =  3 coordinates =      2.6089894     0.0980583     8.9921406
 ion   5 type =  3 coordinates =      0.0000366     4.7208463     8.9687569
 ion   6 type =  3 coordinates =      5.3351596     4.7216127     9.3801964
 ion   7 type =  3 coordinates =      0.0000411     7.8029520     4.6046265
 ion   8 type =  3 coordinates =      5.3351612     7.6977491     4.7534894
 ion   9 type =  3 coordinates =      2.6978606     3.1521739     4.6884123
 ion  10 type =  3 coordinates =      7.9724637     3.1521745     4.6884152

%%%% SYSTEM %%%%%%%%%%%%%%%%%%%%%%%%%%%%%%%%%%%%%%%%%%%%%%%%%%%%%%%%%%%%%%%%%%%%
 system is built from all present ionic types
 system defined dimension   =  0 
 system defined axis        =  3 
 system center              =      0.3882415     0.3750182     0.7201831 
 system width               =      1.5145225 

%%%% ELECTRONS %%%%%%%%%%%%%%%%%%%%%%%%%%%%%%%%%%%%%%%%%%%%%%%%%%%%%%%%%%%%%%%%%
 number of electrons        =         89
 total electronic charge    =     89.0000000
 number of spin components  =  1

%%%% BOUNDARY %%%%%%%%%%%%%%%%%%%%%%%%%%%%%%%%%%%%%%%%%%%%%%%%%%%%%%%%%%%%%%%%%%
 boundary mode              = full                 
 boundary is built as a function of a smooth density
 function type              =  1 
 using the optimal SCCS function with parameters 
 rhomax                     =      0.0050000 
 rhomin                     =      0.0001000 
 volume of the QM region    =   1394.6970773 
 surface of the QM region   =    257.8217884 

%%%% DIELECTRIC %%%%%%%%%%%%%%%%%%%%%%%%%%%%%%%%%%%%%%%%%%%%%%%%%%%%%%%%%%%%%%%%%
 dielectric build on homogeneous background
 environment bulk permitt.  =    100.0000000 
 dielectric flags
 need gradient              =  F 
 need factor depend. sqrt   =  F 
 need gradient of logarithm =  T 

%%%% COMPUTE ELECTROSTATIC POTENTIAL %%%%%%%%%%%%%%%%%%%%%%%%%%%%%%%%%%%%%%%%%%%
 Starting from polarization: rhoiter =      0.000000 jellium =      0.000000
 Iteration #          1
 delta_qm =   0.486868E-02 delta_en =   0.592597E-05 tol =   0.100000E-10
 Iteration #          2
 delta_qm =   0.518439E-02 delta_en =   0.631024E-05 tol =   0.100000E-10
 Iteration #          3
 delta_qm =   0.169968E-02 delta_en =   0.206879E-05 tol =   0.100000E-10
 Iteration #          4
 delta_qm =   0.143061E-02 delta_en =   0.174128E-05 tol =   0.100000E-10
 Iteration #          5
 delta_qm =   0.701030E-03 delta_en =   0.853266E-06 tol =   0.100000E-10
 Iteration #          6
 delta_qm =   0.536475E-03 delta_en =   0.652977E-06 tol =   0.100000E-10
 Iteration #          7
 delta_qm =   0.435730E-03 delta_en =   0.530354E-06 tol =   0.100000E-10
 Iteration #          8
 delta_qm =   0.275104E-03 delta_en =   0.334846E-06 tol =   0.100000E-10
 Iteration #          9
 delta_qm =   0.194512E-03 delta_en =   0.236753E-06 tol =   0.100000E-10
 Iteration #         10
 delta_qm =   0.164223E-03 delta_en =   0.199886E-06 tol =   0.100000E-10
 Iteration #         11
 delta_qm =   0.114373E-03 delta_en =   0.139210E-06 tol =   0.100000E-10
 Iteration #         12
 delta_qm =   0.750389E-04 delta_en =   0.913345E-07 tol =   0.100000E-10
 Iteration #         13
 delta_qm =   0.613927E-04 delta_en =   0.747248E-07 tol =   0.100000E-10
 Iteration #         14
 delta_qm =   0.460514E-04 delta_en =   0.560520E-07 tol =   0.100000E-10
 Iteration #         15
 delta_qm =   0.296048E-04 delta_en =   0.360338E-07 tol =   0.100000E-10
 Iteration #         16
 delta_qm =   0.225541E-04 delta_en =   0.274519E-07 tol =   0.100000E-10
 Iteration #         17
 delta_qm =   0.178699E-04 delta_en =   0.217506E-07 tol =   0.100000E-10
 Iteration #         18
 delta_qm =   0.117154E-04 delta_en =   0.142595E-07 tol =   0.100000E-10
 Iteration #         19
 delta_qm =   0.821141E-05 delta_en =   0.999462E-08 tol =   0.100000E-10
 Iteration #         20
 delta_qm =   0.678625E-05 delta_en =   0.825996E-08 tol =   0.100000E-10
 Iteration #         21
 delta_qm =   0.476556E-05 delta_en =   0.580046E-08 tol =   0.100000E-10
 Iteration #         22
 delta_qm =   0.311012E-05 delta_en =   0.378552E-08 tol =   0.100000E-10
 Iteration #         23
 delta_qm =   0.249904E-05 delta_en =   0.304174E-08 tol =   0.100000E-10
 Iteration #         24
 delta_qm =   0.189230E-05 delta_en =   0.230323E-08 tol =   0.100000E-10
 Iteration #         25
 delta_qm =   0.123167E-05 delta_en =   0.149914E-08 tol =   0.100000E-10
 Iteration #         26
 delta_qm =   0.927826E-06 delta_en =   0.112931E-08 tol =   0.100000E-10
 Iteration #         27
 delta_qm =   0.739643E-06 delta_en =   0.900265E-09 tol =   0.100000E-10
 Iteration #         28
 delta_qm =   0.496602E-06 delta_en =   0.604444E-09 tol =   0.100000E-10
 Iteration #         29
 delta_qm =   0.346159E-06 delta_en =   0.421331E-09 tol =   0.100000E-10
 Iteration #         30
 delta_qm =   0.282607E-06 delta_en =   0.343978E-09 tol =   0.100000E-10
 Iteration #         31
 delta_qm =   0.202581E-06 delta_en =   0.246574E-09 tol =   0.100000E-10
 Iteration #         32
 delta_qm =   0.132981E-06 delta_en =   0.161860E-09 tol =   0.100000E-10
 Iteration #         33
 delta_qm =   0.103769E-06 delta_en =   0.126304E-09 tol =   0.100000E-10
 Iteration #         34
 delta_qm =   0.804295E-07 delta_en =   0.978957E-10 tol =   0.100000E-10
 Iteration #         35
 delta_qm =   0.550707E-07 delta_en =   0.670299E-10 tol =   0.100000E-10
 Iteration #         36
 delta_qm =   0.401848E-07 delta_en =   0.489114E-10 tol =   0.100000E-10
 Iteration #         37
 delta_qm =   0.308787E-07 delta_en =   0.375844E-10 tol =   0.100000E-10
 Iteration #         38
 delta_qm =   0.218515E-07 delta_en =   0.265967E-10 tol =   0.100000E-10
 Iteration #         39
 delta_qm =   0.163050E-07 delta_en =   0.198458E-10 tol =   0.100000E-10
 Iteration #         40
 delta_qm =   0.129857E-07 delta_en =   0.158057E-10 tol =   0.100000E-10
 Iteration #         41
 delta_qm =   0.925927E-08 delta_en =   0.112700E-10 tol =   0.100000E-10
 Iteration #         42
 delta_qm =   0.646546E-08 delta_en =   0.786950E-11 tol =   0.100000E-10
 Charges are converged, EXIT

%%%% ELECTRONS %%%%%%%%%%%%%%%%%%%%%%%%%%%%%%%%%%%%%%%%%%%%%%%%%%%%%%%%%%%%%%%%%
 number of electrons        =         89
 total electronic charge    =     89.0000000
 number of spin components  =  1

%%%% BOUNDARY %%%%%%%%%%%%%%%%%%%%%%%%%%%%%%%%%%%%%%%%%%%%%%%%%%%%%%%%%%%%%%%%%%
 boundary mode              = full                 
 boundary is built as a function of a smooth density
 function type              =  1 
 using the optimal SCCS function with parameters 
 rhomax                     =      0.0050000 
 rhomin                     =      0.0001000 
 volume of the QM region    =   1556.7560793 
 surface of the QM region   =    915.1364350 

%%%% DIELECTRIC %%%%%%%%%%%%%%%%%%%%%%%%%%%%%%%%%%%%%%%%%%%%%%%%%%%%%%%%%%%%%%%%%
 dielectric build on homogeneous background
 environment bulk permitt.  =    100.0000000 
 dielectric flags
 need gradient              =  F 
 need factor depend. sqrt   =  F 
 need gradient of logarithm =  T 

%%%% ELECTRONS %%%%%%%%%%%%%%%%%%%%%%%%%%%%%%%%%%%%%%%%%%%%%%%%%%%%%%%%%%%%%%%%%
 number of electrons        =         89
 total electronic charge    =     89.0000000
 number of spin components  =  1

%%%% BOUNDARY %%%%%%%%%%%%%%%%%%%%%%%%%%%%%%%%%%%%%%%%%%%%%%%%%%%%%%%%%%%%%%%%%%
 boundary mode              = full                 
 boundary is built as a function of a smooth density
 function type              =  1 
 using the optimal SCCS function with parameters 
 rhomax                     =      0.0050000 
 rhomin                     =      0.0001000 
 volume of the QM region    =   1375.2108364 
 surface of the QM region   =    294.7964074 

%%%% DIELECTRIC %%%%%%%%%%%%%%%%%%%%%%%%%%%%%%%%%%%%%%%%%%%%%%%%%%%%%%%%%%%%%%%%%
 dielectric build on homogeneous background
 environment bulk permitt.  =    100.0000000 
 dielectric flags
 need gradient              =  F 
 need factor depend. sqrt   =  F 
 need gradient of logarithm =  T 

%%%% COMPUTE ELECTROSTATIC POTENTIAL %%%%%%%%%%%%%%%%%%%%%%%%%%%%%%%%%%%%%%%%%%%
 Starting from polarization: rhoiter =      1.230132 jellium =      0.000000
 Iteration #          1
 delta_qm =   0.635892E-03 delta_en =   0.773983E-06 tol =   0.100000E-10
 Iteration #          2
 delta_qm =   0.646883E-03 delta_en =   0.787361E-06 tol =   0.100000E-10
 Iteration #          3
 delta_qm =   0.241466E-03 delta_en =   0.293903E-06 tol =   0.100000E-10
 Iteration #          4
 delta_qm =   0.162261E-03 delta_en =   0.197498E-06 tol =   0.100000E-10
 Iteration #          5
 delta_qm =   0.800544E-04 delta_en =   0.974391E-07 tol =   0.100000E-10
 Iteration #          6
 delta_qm =   0.677052E-04 delta_en =   0.824082E-07 tol =   0.100000E-10
 Iteration #          7
 delta_qm =   0.522821E-04 delta_en =   0.636358E-07 tol =   0.100000E-10
 Iteration #          8
 delta_qm =   0.447328E-04 delta_en =   0.544470E-07 tol =   0.100000E-10
 Iteration #          9
 delta_qm =   0.417049E-04 delta_en =   0.507616E-07 tol =   0.100000E-10
 Iteration #         10
 delta_qm =   0.359377E-04 delta_en =   0.437420E-07 tol =   0.100000E-10
 Iteration #         11
 delta_qm =   0.296886E-04 delta_en =   0.361359E-07 tol =   0.100000E-10
 Iteration #         12
 delta_qm =   0.248812E-04 delta_en =   0.302845E-07 tol =   0.100000E-10
 Iteration #         13
 delta_qm =   0.208904E-04 delta_en =   0.254270E-07 tol =   0.100000E-10
 Iteration #         14
 delta_qm =   0.174835E-04 delta_en =   0.212803E-07 tol =   0.100000E-10
 Iteration #         15
 delta_qm =   0.146817E-04 delta_en =   0.178699E-07 tol =   0.100000E-10
 Iteration #         16
 delta_qm =   0.121595E-04 delta_en =   0.148001E-07 tol =   0.100000E-10
 Iteration #         17
 delta_qm =   0.981730E-05 delta_en =   0.119492E-07 tol =   0.100000E-10
 Iteration #         18
 delta_qm =   0.780501E-05 delta_en =   0.949995E-08 tol =   0.100000E-10
 Iteration #         19
 delta_qm =   0.617188E-05 delta_en =   0.751218E-08 tol =   0.100000E-10
 Iteration #         20
 delta_qm =   0.486763E-05 delta_en =   0.592469E-08 tol =   0.100000E-10
 Iteration #         21
 delta_qm =   0.384169E-05 delta_en =   0.467596E-08 tol =   0.100000E-10
 Iteration #         22
 delta_qm =   0.302960E-05 delta_en =   0.368751E-08 tol =   0.100000E-10
 Iteration #         23
 delta_qm =   0.236929E-05 delta_en =   0.288381E-08 tol =   0.100000E-10
 Iteration #         24
 delta_qm =   0.183419E-05 delta_en =   0.223250E-08 tol =   0.100000E-10
 Iteration #         25
 delta_qm =   0.141328E-05 delta_en =   0.172019E-08 tol =   0.100000E-10
 Iteration #         26
 delta_qm =   0.108866E-05 delta_en =   0.132507E-08 tol =   0.100000E-10
 Iteration #         27
 delta_qm =   0.840072E-06 delta_en =   0.102250E-08 tol =   0.100000E-10
 Iteration #         28
 delta_qm =   0.650066E-06 delta_en =   0.791235E-09 tol =   0.100000E-10
 Iteration #         29
 delta_qm =   0.503428E-06 delta_en =   0.612753E-09 tol =   0.100000E-10
 Iteration #         30
 delta_qm =   0.389159E-06 delta_en =   0.473670E-09 tol =   0.100000E-10
 Iteration #         31
 delta_qm =   0.300628E-06 delta_en =   0.365913E-09 tol =   0.100000E-10
 Iteration #         32
 delta_qm =   0.232735E-06 delta_en =   0.283276E-09 tol =   0.100000E-10
 Iteration #         33
 delta_qm =   0.180786E-06 delta_en =   0.220046E-09 tol =   0.100000E-10
 Iteration #         34
 delta_qm =   0.140968E-06 delta_en =   0.171581E-09 tol =   0.100000E-10
 Iteration #         35
 delta_qm =   0.110271E-06 delta_en =   0.134217E-09 tol =   0.100000E-10
 Iteration #         36
 delta_qm =   0.863172E-07 delta_en =   0.105062E-09 tol =   0.100000E-10
 Iteration #         37
 delta_qm =   0.674734E-07 delta_en =   0.821260E-10 tol =   0.100000E-10
 Iteration #         38
 delta_qm =   0.527056E-07 delta_en =   0.641512E-10 tol =   0.100000E-10
 Iteration #         39
 delta_qm =   0.412332E-07 delta_en =   0.501875E-10 tol =   0.100000E-10
 Iteration #         40
 delta_qm =   0.323520E-07 delta_en =   0.393776E-10 tol =   0.100000E-10
 Iteration #         41
 delta_qm =   0.254399E-07 delta_en =   0.309644E-10 tol =   0.100000E-10
 Iteration #         42
 delta_qm =   0.200050E-07 delta_en =   0.243494E-10 tol =   0.100000E-10
 Iteration #         43
 delta_qm =   0.157039E-07 delta_en =   0.191142E-10 tol =   0.100000E-10
 Iteration #         44
 delta_qm =   0.123042E-07 delta_en =   0.149763E-10 tol =   0.100000E-10
 Iteration #         45
 delta_qm =   0.962945E-08 delta_en =   0.117206E-10 tol =   0.100000E-10
 Iteration #         46
 delta_qm =   0.753160E-08 delta_en =   0.916717E-11 tol =   0.100000E-10
 Charges are converged, EXIT

%%%% ELECTRONS %%%%%%%%%%%%%%%%%%%%%%%%%%%%%%%%%%%%%%%%%%%%%%%%%%%%%%%%%%%%%%%%%
 number of electrons        =         89
 total electronic charge    =     89.0000000
 number of spin components  =  1

%%%% BOUNDARY %%%%%%%%%%%%%%%%%%%%%%%%%%%%%%%%%%%%%%%%%%%%%%%%%%%%%%%%%%%%%%%%%%
 boundary mode              = full                 
 boundary is built as a function of a smooth density
 function type              =  1 
 using the optimal SCCS function with parameters 
 rhomax                     =      0.0050000 
 rhomin                     =      0.0001000 
 volume of the QM region    =   1371.7074564 
 surface of the QM region   =    313.3681007 

%%%% DIELECTRIC %%%%%%%%%%%%%%%%%%%%%%%%%%%%%%%%%%%%%%%%%%%%%%%%%%%%%%%%%%%%%%%%%
 dielectric build on homogeneous background
 environment bulk permitt.  =    100.0000000 
 dielectric flags
 need gradient              =  F 
 need factor depend. sqrt   =  F 
 need gradient of logarithm =  T 

%%%% COMPUTE ELECTROSTATIC POTENTIAL %%%%%%%%%%%%%%%%%%%%%%%%%%%%%%%%%%%%%%%%%%%
 Starting from polarization: rhoiter =      1.304860 jellium =      0.000000
 Iteration #          1
 delta_qm =   0.665427E-03 delta_en =   0.809932E-06 tol =   0.100000E-10
 Iteration #          2
 delta_qm =   0.489704E-03 delta_en =   0.596048E-06 tol =   0.100000E-10
 Iteration #          3
 delta_qm =   0.329596E-03 delta_en =   0.401172E-06 tol =   0.100000E-10
 Iteration #          4
 delta_qm =   0.231909E-03 delta_en =   0.282271E-06 tol =   0.100000E-10
 Iteration #          5
 delta_qm =   0.140749E-03 delta_en =   0.171315E-06 tol =   0.100000E-10
 Iteration #          6
 delta_qm =   0.115942E-03 delta_en =   0.141120E-06 tol =   0.100000E-10
 Iteration #          7
 delta_qm =   0.823381E-04 delta_en =   0.100219E-06 tol =   0.100000E-10
 Iteration #          8
 delta_qm =   0.515432E-04 delta_en =   0.627363E-07 tol =   0.100000E-10
 Iteration #          9
 delta_qm =   0.410164E-04 delta_en =   0.499236E-07 tol =   0.100000E-10
 Iteration #         10
 delta_qm =   0.320333E-04 delta_en =   0.389896E-07 tol =   0.100000E-10
 Iteration #         11
 delta_qm =   0.208370E-04 delta_en =   0.253619E-07 tol =   0.100000E-10
 Iteration #         12
 delta_qm =   0.159504E-04 delta_en =   0.194142E-07 tol =   0.100000E-10
 Iteration #         13
 delta_qm =   0.138020E-04 delta_en =   0.167992E-07 tol =   0.100000E-10
 Iteration #         14
 delta_qm =   0.100799E-04 delta_en =   0.122689E-07 tol =   0.100000E-10
 Iteration #         15
 delta_qm =   0.724578E-05 delta_en =   0.881928E-08 tol =   0.100000E-10
 Iteration #         16
 delta_qm =   0.593281E-05 delta_en =   0.722119E-08 tol =   0.100000E-10
 Iteration #         17
 delta_qm =   0.456796E-05 delta_en =   0.555995E-08 tol =   0.100000E-10
 Iteration #         18
 delta_qm =   0.347589E-05 delta_en =   0.423072E-08 tol =   0.100000E-10
 Iteration #         19
 delta_qm =   0.298716E-05 delta_en =   0.363585E-08 tol =   0.100000E-10
 Iteration #         20
 delta_qm =   0.247612E-05 delta_en =   0.301384E-08 tol =   0.100000E-10
 Iteration #         21
 delta_qm =   0.187627E-05 delta_en =   0.228372E-08 tol =   0.100000E-10
 Iteration #         22
 delta_qm =   0.143801E-05 delta_en =   0.175029E-08 tol =   0.100000E-10
 Iteration #         23
 delta_qm =   0.112401E-05 delta_en =   0.136810E-08 tol =   0.100000E-10
 Iteration #         24
 delta_qm =   0.854728E-06 delta_en =   0.104034E-08 tol =   0.100000E-10
 Iteration #         25
 delta_qm =   0.663451E-06 delta_en =   0.807527E-09 tol =   0.100000E-10
 Iteration #         26
 delta_qm =   0.527362E-06 delta_en =   0.641884E-09 tol =   0.100000E-10
 Iteration #         27
 delta_qm =   0.401692E-06 delta_en =   0.488924E-09 tol =   0.100000E-10
 Iteration #         28
 delta_qm =   0.296289E-06 delta_en =   0.360632E-09 tol =   0.100000E-10
 Iteration #         29
 delta_qm =   0.221388E-06 delta_en =   0.269465E-09 tol =   0.100000E-10
 Iteration #         30
 delta_qm =   0.164641E-06 delta_en =   0.200394E-09 tol =   0.100000E-10
 Iteration #         31
 delta_qm =   0.121441E-06 delta_en =   0.147813E-09 tol =   0.100000E-10
 Iteration #         32
 delta_qm =   0.921844E-07 delta_en =   0.112203E-09 tol =   0.100000E-10
 Iteration #         33
 delta_qm =   0.703016E-07 delta_en =   0.855683E-10 tol =   0.100000E-10
 Iteration #         34
 delta_qm =   0.519182E-07 delta_en =   0.631928E-10 tol =   0.100000E-10
 Iteration #         35
 delta_qm =   0.381052E-07 delta_en =   0.463802E-10 tol =   0.100000E-10
 Iteration #         36
 delta_qm =   0.283669E-07 delta_en =   0.345271E-10 tol =   0.100000E-10
 Iteration #         37
 delta_qm =   0.210928E-07 delta_en =   0.256733E-10 tol =   0.100000E-10
 Iteration #         38
 delta_qm =   0.158792E-07 delta_en =   0.193275E-10 tol =   0.100000E-10
 Iteration #         39
 delta_qm =   0.121939E-07 delta_en =   0.148420E-10 tol =   0.100000E-10
 Iteration #         40
 delta_qm =   0.922705E-08 delta_en =   0.112308E-10 tol =   0.100000E-10
 Iteration #         41
 delta_qm =   0.686269E-08 delta_en =   0.835300E-11 tol =   0.100000E-10
 Charges are converged, EXIT

%%%% ELECTRONS %%%%%%%%%%%%%%%%%%%%%%%%%%%%%%%%%%%%%%%%%%%%%%%%%%%%%%%%%%%%%%%%%
 number of electrons        =         89
 total electronic charge    =     89.0000000
 number of spin components  =  1

%%%% BOUNDARY %%%%%%%%%%%%%%%%%%%%%%%%%%%%%%%%%%%%%%%%%%%%%%%%%%%%%%%%%%%%%%%%%%
 boundary mode              = full                 
 boundary is built as a function of a smooth density
 function type              =  1 
 using the optimal SCCS function with parameters 
 rhomax                     =      0.0050000 
 rhomin                     =      0.0001000 
 volume of the QM region    =   1386.5299697 
 surface of the QM region   =    319.9744968 

%%%% DIELECTRIC %%%%%%%%%%%%%%%%%%%%%%%%%%%%%%%%%%%%%%%%%%%%%%%%%%%%%%%%%%%%%%%%%
 dielectric build on homogeneous background
 environment bulk permitt.  =    100.0000000 
 dielectric flags
 need gradient              =  F 
 need factor depend. sqrt   =  F 
 need gradient of logarithm =  T 

%%%% COMPUTE ELECTROSTATIC POTENTIAL %%%%%%%%%%%%%%%%%%%%%%%%%%%%%%%%%%%%%%%%%%%
 Starting from polarization: rhoiter =      1.356160 jellium =      0.000000
 Iteration #          1
 delta_qm =   0.453997E-03 delta_en =   0.552588E-06 tol =   0.100000E-10
 Iteration #          2
 delta_qm =   0.535121E-03 delta_en =   0.651329E-06 tol =   0.100000E-10
 Iteration #          3
 delta_qm =   0.303933E-03 delta_en =   0.369935E-06 tol =   0.100000E-10
 Iteration #          4
 delta_qm =   0.211042E-03 delta_en =   0.256872E-06 tol =   0.100000E-10
 Iteration #          5
 delta_qm =   0.127980E-03 delta_en =   0.155773E-06 tol =   0.100000E-10
 Iteration #          6
 delta_qm =   0.105477E-03 delta_en =   0.128383E-06 tol =   0.100000E-10
 Iteration #          7
 delta_qm =   0.742284E-04 delta_en =   0.903479E-07 tol =   0.100000E-10
 Iteration #          8
 delta_qm =   0.485401E-04 delta_en =   0.590812E-07 tol =   0.100000E-10
 Iteration #          9
 delta_qm =   0.388591E-04 delta_en =   0.472978E-07 tol =   0.100000E-10
 Iteration #         10
 delta_qm =   0.313274E-04 delta_en =   0.381305E-07 tol =   0.100000E-10
 Iteration #         11
 delta_qm =   0.250301E-04 delta_en =   0.304656E-07 tol =   0.100000E-10
 Iteration #         12
 delta_qm =   0.231377E-04 delta_en =   0.281623E-07 tol =   0.100000E-10
 Iteration #         13
 delta_qm =   0.211943E-04 delta_en =   0.257969E-07 tol =   0.100000E-10
 Iteration #         14
 delta_qm =   0.180049E-04 delta_en =   0.219148E-07 tol =   0.100000E-10
 Iteration #         15
 delta_qm =   0.152304E-04 delta_en =   0.185378E-07 tol =   0.100000E-10
 Iteration #         16
 delta_qm =   0.130495E-04 delta_en =   0.158833E-07 tol =   0.100000E-10
 Iteration #         17
 delta_qm =   0.110947E-04 delta_en =   0.135041E-07 tol =   0.100000E-10
 Iteration #         18
 delta_qm =   0.943467E-05 delta_en =   0.114835E-07 tol =   0.100000E-10
 Iteration #         19
 delta_qm =   0.795391E-05 delta_en =   0.968119E-08 tol =   0.100000E-10
 Iteration #         20
 delta_qm =   0.650181E-05 delta_en =   0.791375E-08 tol =   0.100000E-10
 Iteration #         21
 delta_qm =   0.517667E-05 delta_en =   0.630084E-08 tol =   0.100000E-10
 Iteration #         22
 delta_qm =   0.408304E-05 delta_en =   0.496971E-08 tol =   0.100000E-10
 Iteration #         23
 delta_qm =   0.320124E-05 delta_en =   0.389642E-08 tol =   0.100000E-10
 Iteration #         24
 delta_qm =   0.249350E-05 delta_en =   0.303500E-08 tol =   0.100000E-10
 Iteration #         25
 delta_qm =   0.193401E-05 delta_en =   0.235400E-08 tol =   0.100000E-10
 Iteration #         26
 delta_qm =   0.148709E-05 delta_en =   0.181003E-08 tol =   0.100000E-10
 Iteration #         27
 delta_qm =   0.112869E-05 delta_en =   0.137380E-08 tol =   0.100000E-10
 Iteration #         28
 delta_qm =   0.849781E-06 delta_en =   0.103432E-08 tol =   0.100000E-10
 Iteration #         29
 delta_qm =   0.637125E-06 delta_en =   0.775484E-09 tol =   0.100000E-10
 Iteration #         30
 delta_qm =   0.474994E-06 delta_en =   0.578144E-09 tol =   0.100000E-10
 Iteration #         31
 delta_qm =   0.353234E-06 delta_en =   0.429943E-09 tol =   0.100000E-10
 Iteration #         32
 delta_qm =   0.263036E-06 delta_en =   0.320157E-09 tol =   0.100000E-10
 Iteration #         33
 delta_qm =   0.194927E-06 delta_en =   0.237258E-09 tol =   0.100000E-10
 Iteration #         34
 delta_qm =   0.142827E-06 delta_en =   0.173843E-09 tol =   0.100000E-10
 Iteration #         35
 delta_qm =   0.104066E-06 delta_en =   0.126666E-09 tol =   0.100000E-10
 Iteration #         36
 delta_qm =   0.762883E-07 delta_en =   0.928551E-10 tol =   0.100000E-10
 Iteration #         37
 delta_qm =   0.565216E-07 delta_en =   0.687959E-10 tol =   0.100000E-10
 Iteration #         38
 delta_qm =   0.420420E-07 delta_en =   0.511719E-10 tol =   0.100000E-10
 Iteration #         39
 delta_qm =   0.310872E-07 delta_en =   0.378381E-10 tol =   0.100000E-10
 Iteration #         40
 delta_qm =   0.228763E-07 delta_en =   0.278441E-10 tol =   0.100000E-10
 Iteration #         41
 delta_qm =   0.169598E-07 delta_en =   0.206428E-10 tol =   0.100000E-10
 Iteration #         42
 delta_qm =   0.126843E-07 delta_en =   0.154389E-10 tol =   0.100000E-10
 Iteration #         43
 delta_qm =   0.943223E-08 delta_en =   0.114805E-10 tol =   0.100000E-10
 Iteration #         44
 delta_qm =   0.696017E-08 delta_en =   0.847165E-11 tol =   0.100000E-10
 Charges are converged, EXIT

%%%% ELECTRONS %%%%%%%%%%%%%%%%%%%%%%%%%%%%%%%%%%%%%%%%%%%%%%%%%%%%%%%%%%%%%%%%%
 number of electrons        =         89
 total electronic charge    =     89.0000000
 number of spin components  =  1

%%%% BOUNDARY %%%%%%%%%%%%%%%%%%%%%%%%%%%%%%%%%%%%%%%%%%%%%%%%%%%%%%%%%%%%%%%%%%
 boundary mode              = full                 
 boundary is built as a function of a smooth density
 function type              =  1 
 using the optimal SCCS function with parameters 
 rhomax                     =      0.0050000 
 rhomin                     =      0.0001000 
 volume of the QM region    =   1396.5712761 
 surface of the QM region   =    348.9589708 

%%%% DIELECTRIC %%%%%%%%%%%%%%%%%%%%%%%%%%%%%%%%%%%%%%%%%%%%%%%%%%%%%%%%%%%%%%%%%
 dielectric build on homogeneous background
 environment bulk permitt.  =    100.0000000 
 dielectric flags
 need gradient              =  F 
 need factor depend. sqrt   =  F 
 need gradient of logarithm =  T 

%%%% COMPUTE ELECTROSTATIC POTENTIAL %%%%%%%%%%%%%%%%%%%%%%%%%%%%%%%%%%%%%%%%%%%
 Starting from polarization: rhoiter =      1.402369 jellium =      0.000000
 Iteration #          1
 delta_qm =   0.159846E-03 delta_en =   0.194559E-06 tol =   0.100000E-10
 Iteration #          2
 delta_qm =   0.143098E-03 delta_en =   0.174174E-06 tol =   0.100000E-10
 Iteration #          3
 delta_qm =   0.748291E-04 delta_en =   0.910791E-07 tol =   0.100000E-10
 Iteration #          4
 delta_qm =   0.528976E-04 delta_en =   0.643849E-07 tol =   0.100000E-10
 Iteration #          5
 delta_qm =   0.316348E-04 delta_en =   0.385046E-07 tol =   0.100000E-10
 Iteration #          6
 delta_qm =   0.248396E-04 delta_en =   0.302338E-07 tol =   0.100000E-10
 Iteration #          7
 delta_qm =   0.180386E-04 delta_en =   0.219559E-07 tol =   0.100000E-10
 Iteration #          8
 delta_qm =   0.122582E-04 delta_en =   0.149202E-07 tol =   0.100000E-10
 Iteration #          9
 delta_qm =   0.942943E-05 delta_en =   0.114771E-07 tol =   0.100000E-10
 Iteration #         10
 delta_qm =   0.749083E-05 delta_en =   0.911755E-08 tol =   0.100000E-10
 Iteration #         11
 delta_qm =   0.590189E-05 delta_en =   0.718355E-08 tol =   0.100000E-10
 Iteration #         12
 delta_qm =   0.511456E-05 delta_en =   0.622525E-08 tol =   0.100000E-10
 Iteration #         13
 delta_qm =   0.445971E-05 delta_en =   0.542818E-08 tol =   0.100000E-10
 Iteration #         14
 delta_qm =   0.366153E-05 delta_en =   0.445667E-08 tol =   0.100000E-10
 Iteration #         15
 delta_qm =   0.298378E-05 delta_en =   0.363174E-08 tol =   0.100000E-10
 Iteration #         16
 delta_qm =   0.245470E-05 delta_en =   0.298776E-08 tol =   0.100000E-10
 Iteration #         17
 delta_qm =   0.200336E-05 delta_en =   0.243841E-08 tol =   0.100000E-10
 Iteration #         18
 delta_qm =   0.165036E-05 delta_en =   0.200876E-08 tol =   0.100000E-10
 Iteration #         19
 delta_qm =   0.136205E-05 delta_en =   0.165784E-08 tol =   0.100000E-10
 Iteration #         20
 delta_qm =   0.108824E-05 delta_en =   0.132456E-08 tol =   0.100000E-10
 Iteration #         21
 delta_qm =   0.844684E-06 delta_en =   0.102812E-08 tol =   0.100000E-10
 Iteration #         22
 delta_qm =   0.652546E-06 delta_en =   0.794254E-09 tol =   0.100000E-10
 Iteration #         23
 delta_qm =   0.501693E-06 delta_en =   0.610641E-09 tol =   0.100000E-10
 Iteration #         24
 delta_qm =   0.382260E-06 delta_en =   0.465272E-09 tol =   0.100000E-10
 Iteration #         25
 delta_qm =   0.291473E-06 delta_en =   0.354770E-09 tol =   0.100000E-10
 Iteration #         26
 delta_qm =   0.221495E-06 delta_en =   0.269596E-09 tol =   0.100000E-10
 Iteration #         27
 delta_qm =   0.165653E-06 delta_en =   0.201627E-09 tol =   0.100000E-10
 Iteration #         28
 delta_qm =   0.122782E-06 delta_en =   0.149446E-09 tol =   0.100000E-10
 Iteration #         29
 delta_qm =   0.911503E-07 delta_en =   0.110945E-09 tol =   0.100000E-10
 Iteration #         30
 delta_qm =   0.674205E-07 delta_en =   0.820616E-10 tol =   0.100000E-10
 Iteration #         31
 delta_qm =   0.497124E-07 delta_en =   0.605080E-10 tol =   0.100000E-10
 Iteration #         32
 delta_qm =   0.369317E-07 delta_en =   0.449518E-10 tol =   0.100000E-10
 Iteration #         33
 delta_qm =   0.275009E-07 delta_en =   0.334730E-10 tol =   0.100000E-10
 Iteration #         34
 delta_qm =   0.202412E-07 delta_en =   0.246368E-10 tol =   0.100000E-10
 Iteration #         35
 delta_qm =   0.147860E-07 delta_en =   0.179970E-10 tol =   0.100000E-10
 Iteration #         36
 delta_qm =   0.109335E-07 delta_en =   0.133079E-10 tol =   0.100000E-10
 Iteration #         37
 delta_qm =   0.827396E-08 delta_en =   0.100707E-10 tol =   0.100000E-10
 Iteration #         38
 delta_qm =   0.632472E-08 delta_en =   0.769820E-11 tol =   0.100000E-10
 Charges are converged, EXIT

%%%% ELECTRONS %%%%%%%%%%%%%%%%%%%%%%%%%%%%%%%%%%%%%%%%%%%%%%%%%%%%%%%%%%%%%%%%%
 number of electrons        =         89
 total electronic charge    =     89.0000000
 number of spin components  =  1

%%%% BOUNDARY %%%%%%%%%%%%%%%%%%%%%%%%%%%%%%%%%%%%%%%%%%%%%%%%%%%%%%%%%%%%%%%%%%
 boundary mode              = full                 
 boundary is built as a function of a smooth density
 function type              =  1 
 using the optimal SCCS function with parameters 
 rhomax                     =      0.0050000 
 rhomin                     =      0.0001000 
 volume of the QM region    =   1418.9666671 
 surface of the QM region   =    368.6772221 

%%%% DIELECTRIC %%%%%%%%%%%%%%%%%%%%%%%%%%%%%%%%%%%%%%%%%%%%%%%%%%%%%%%%%%%%%%%%%
 dielectric build on homogeneous background
 environment bulk permitt.  =    100.0000000 
 dielectric flags
 need gradient              =  F 
 need factor depend. sqrt   =  F 
 need gradient of logarithm =  T 

%%%% COMPUTE ELECTROSTATIC POTENTIAL %%%%%%%%%%%%%%%%%%%%%%%%%%%%%%%%%%%%%%%%%%%
 Starting from polarization: rhoiter =      1.417954 jellium =      0.000000
 Iteration #          1
 delta_qm =   0.296519E-03 delta_en =   0.360911E-06 tol =   0.100000E-10
 Iteration #          2
 delta_qm =   0.393719E-03 delta_en =   0.479219E-06 tol =   0.100000E-10
 Iteration #          3
 delta_qm =   0.223340E-03 delta_en =   0.271841E-06 tol =   0.100000E-10
 Iteration #          4
 delta_qm =   0.144257E-03 delta_en =   0.175584E-06 tol =   0.100000E-10
 Iteration #          5
 delta_qm =   0.874872E-04 delta_en =   0.106486E-06 tol =   0.100000E-10
 Iteration #          6
 delta_qm =   0.740897E-04 delta_en =   0.901792E-07 tol =   0.100000E-10
 Iteration #          7
 delta_qm =   0.508530E-04 delta_en =   0.618962E-07 tol =   0.100000E-10
 Iteration #          8
 delta_qm =   0.349518E-04 delta_en =   0.425419E-07 tol =   0.100000E-10
 Iteration #          9
 delta_qm =   0.303408E-04 delta_en =   0.369296E-07 tol =   0.100000E-10
 Iteration #         10
 delta_qm =   0.264842E-04 delta_en =   0.322355E-07 tol =   0.100000E-10
 Iteration #         11
 delta_qm =   0.241478E-04 delta_en =   0.293918E-07 tol =   0.100000E-10
 Iteration #         12
 delta_qm =   0.235463E-04 delta_en =   0.286596E-07 tol =   0.100000E-10
 Iteration #         13
 delta_qm =   0.217398E-04 delta_en =   0.264609E-07 tol =   0.100000E-10
 Iteration #         14
 delta_qm =   0.188623E-04 delta_en =   0.229584E-07 tol =   0.100000E-10
 Iteration #         15
 delta_qm =   0.161560E-04 delta_en =   0.196645E-07 tol =   0.100000E-10
 Iteration #         16
 delta_qm =   0.137825E-04 delta_en =   0.167755E-07 tol =   0.100000E-10
 Iteration #         17
 delta_qm =   0.116279E-04 delta_en =   0.141530E-07 tol =   0.100000E-10
 Iteration #         18
 delta_qm =   0.974829E-05 delta_en =   0.118652E-07 tol =   0.100000E-10
 Iteration #         19
 delta_qm =   0.806348E-05 delta_en =   0.981456E-08 tol =   0.100000E-10
 Iteration #         20
 delta_qm =   0.650395E-05 delta_en =   0.791635E-08 tol =   0.100000E-10
 Iteration #         21
 delta_qm =   0.514009E-05 delta_en =   0.625632E-08 tol =   0.100000E-10
 Iteration #         22
 delta_qm =   0.402252E-05 delta_en =   0.489606E-08 tol =   0.100000E-10
 Iteration #         23
 delta_qm =   0.312466E-05 delta_en =   0.380322E-08 tol =   0.100000E-10
 Iteration #         24
 delta_qm =   0.241179E-05 delta_en =   0.293554E-08 tol =   0.100000E-10
 Iteration #         25
 delta_qm =   0.185304E-05 delta_en =   0.225545E-08 tol =   0.100000E-10
 Iteration #         26
 delta_qm =   0.141190E-05 delta_en =   0.171851E-08 tol =   0.100000E-10
 Iteration #         27
 delta_qm =   0.106361E-05 delta_en =   0.129458E-08 tol =   0.100000E-10
 Iteration #         28
 delta_qm =   0.795411E-06 delta_en =   0.968143E-09 tol =   0.100000E-10
 Iteration #         29
 delta_qm =   0.592848E-06 delta_en =   0.721591E-09 tol =   0.100000E-10
 Iteration #         30
 delta_qm =   0.440573E-06 delta_en =   0.536248E-09 tol =   0.100000E-10
 Iteration #         31
 delta_qm =   0.327201E-06 delta_en =   0.398256E-09 tol =   0.100000E-10
 Iteration #         32
 delta_qm =   0.243153E-06 delta_en =   0.295957E-09 tol =   0.100000E-10
 Iteration #         33
 delta_qm =   0.180078E-06 delta_en =   0.219184E-09 tol =   0.100000E-10
 Iteration #         34
 delta_qm =   0.132701E-06 delta_en =   0.161518E-09 tol =   0.100000E-10
 Iteration #         35
 delta_qm =   0.978537E-07 delta_en =   0.119104E-09 tol =   0.100000E-10
 Iteration #         36
 delta_qm =   0.726383E-07 delta_en =   0.884126E-10 tol =   0.100000E-10
 Iteration #         37
 delta_qm =   0.543443E-07 delta_en =   0.661457E-10 tol =   0.100000E-10
 Iteration #         38
 delta_qm =   0.408732E-07 delta_en =   0.497493E-10 tol =   0.100000E-10
 Iteration #         39
 delta_qm =   0.307810E-07 delta_en =   0.374654E-10 tol =   0.100000E-10
 Iteration #         40
 delta_qm =   0.231946E-07 delta_en =   0.282316E-10 tol =   0.100000E-10
 Iteration #         41
 delta_qm =   0.175479E-07 delta_en =   0.213587E-10 tol =   0.100000E-10
 Iteration #         42
 delta_qm =   0.133350E-07 delta_en =   0.162309E-10 tol =   0.100000E-10
 Iteration #         43
 delta_qm =   0.101498E-07 delta_en =   0.123539E-10 tol =   0.100000E-10
 Iteration #         44
 delta_qm =   0.775178E-08 delta_en =   0.943517E-11 tol =   0.100000E-10
 Charges are converged, EXIT

%%%% ELECTRONS %%%%%%%%%%%%%%%%%%%%%%%%%%%%%%%%%%%%%%%%%%%%%%%%%%%%%%%%%%%%%%%%%
 number of electrons        =         89
 total electronic charge    =     89.0000000
 number of spin components  =  1

%%%% BOUNDARY %%%%%%%%%%%%%%%%%%%%%%%%%%%%%%%%%%%%%%%%%%%%%%%%%%%%%%%%%%%%%%%%%%
 boundary mode              = full                 
 boundary is built as a function of a smooth density
 function type              =  1 
 using the optimal SCCS function with parameters 
 rhomax                     =      0.0050000 
 rhomin                     =      0.0001000 
 volume of the QM region    =   1437.2680552 
 surface of the QM region   =    364.0466761 

%%%% DIELECTRIC %%%%%%%%%%%%%%%%%%%%%%%%%%%%%%%%%%%%%%%%%%%%%%%%%%%%%%%%%%%%%%%%%
 dielectric build on homogeneous background
 environment bulk permitt.  =    100.0000000 
 dielectric flags
 need gradient              =  F 
 need factor depend. sqrt   =  F 
 need gradient of logarithm =  T 

%%%% COMPUTE ELECTROSTATIC POTENTIAL %%%%%%%%%%%%%%%%%%%%%%%%%%%%%%%%%%%%%%%%%%%
 Starting from polarization: rhoiter =      1.450295 jellium =      0.000000
 Iteration #          1
 delta_qm =   0.244400E-03 delta_en =   0.297474E-06 tol =   0.100000E-10
 Iteration #          2
 delta_qm =   0.318971E-03 delta_en =   0.388239E-06 tol =   0.100000E-10
 Iteration #          3
 delta_qm =   0.196614E-03 delta_en =   0.239311E-06 tol =   0.100000E-10
 Iteration #          4
 delta_qm =   0.127058E-03 delta_en =   0.154650E-06 tol =   0.100000E-10
 Iteration #          5
 delta_qm =   0.799378E-04 delta_en =   0.972972E-07 tol =   0.100000E-10
 Iteration #          6
 delta_qm =   0.672284E-04 delta_en =   0.818278E-07 tol =   0.100000E-10
 Iteration #          7
 delta_qm =   0.468007E-04 delta_en =   0.569640E-07 tol =   0.100000E-10
 Iteration #          8
 delta_qm =   0.332666E-04 delta_en =   0.404909E-07 tol =   0.100000E-10
 Iteration #          9
 delta_qm =   0.294066E-04 delta_en =   0.357925E-07 tol =   0.100000E-10
 Iteration #         10
 delta_qm =   0.263927E-04 delta_en =   0.321241E-07 tol =   0.100000E-10
 Iteration #         11
 delta_qm =   0.246434E-04 delta_en =   0.299949E-07 tol =   0.100000E-10
 Iteration #         12
 delta_qm =   0.240627E-04 delta_en =   0.292882E-07 tol =   0.100000E-10
 Iteration #         13
 delta_qm =   0.222675E-04 delta_en =   0.271032E-07 tol =   0.100000E-10
 Iteration #         14
 delta_qm =   0.194374E-04 delta_en =   0.236585E-07 tol =   0.100000E-10
 Iteration #         15
 delta_qm =   0.166901E-04 delta_en =   0.203146E-07 tol =   0.100000E-10
 Iteration #         16
 delta_qm =   0.142376E-04 delta_en =   0.173294E-07 tol =   0.100000E-10
 Iteration #         17
 delta_qm =   0.120060E-04 delta_en =   0.146133E-07 tol =   0.100000E-10
 Iteration #         18
 delta_qm =   0.100427E-04 delta_en =   0.122236E-07 tol =   0.100000E-10
 Iteration #         19
 delta_qm =   0.828740E-05 delta_en =   0.100871E-07 tol =   0.100000E-10
 Iteration #         20
 delta_qm =   0.668296E-05 delta_en =   0.813423E-08 tol =   0.100000E-10
 Iteration #         21
 delta_qm =   0.528587E-05 delta_en =   0.643376E-08 tol =   0.100000E-10
 Iteration #         22
 delta_qm =   0.413820E-05 delta_en =   0.503686E-08 tol =   0.100000E-10
 Iteration #         23
 delta_qm =   0.321503E-05 delta_en =   0.391321E-08 tol =   0.100000E-10
 Iteration #         24
 delta_qm =   0.248132E-05 delta_en =   0.302017E-08 tol =   0.100000E-10
 Iteration #         25
 delta_qm =   0.190531E-05 delta_en =   0.231907E-08 tol =   0.100000E-10
 Iteration #         26
 delta_qm =   0.145116E-05 delta_en =   0.176629E-08 tol =   0.100000E-10
 Iteration #         27
 delta_qm =   0.109318E-05 delta_en =   0.133058E-08 tol =   0.100000E-10
 Iteration #         28
 delta_qm =   0.817018E-06 delta_en =   0.994442E-09 tol =   0.100000E-10
 Iteration #         29
 delta_qm =   0.607992E-06 delta_en =   0.740024E-09 tol =   0.100000E-10
 Iteration #         30
 delta_qm =   0.450884E-06 delta_en =   0.548799E-09 tol =   0.100000E-10
 Iteration #         31
 delta_qm =   0.333833E-06 delta_en =   0.406328E-09 tol =   0.100000E-10
 Iteration #         32
 delta_qm =   0.246958E-06 delta_en =   0.300587E-09 tol =   0.100000E-10
 Iteration #         33
 delta_qm =   0.181942E-06 delta_en =   0.221452E-09 tol =   0.100000E-10
 Iteration #         34
 delta_qm =   0.133364E-06 delta_en =   0.162326E-09 tol =   0.100000E-10
 Iteration #         35
 delta_qm =   0.977327E-07 delta_en =   0.118956E-09 tol =   0.100000E-10
 Iteration #         36
 delta_qm =   0.719247E-07 delta_en =   0.875440E-10 tol =   0.100000E-10
 Iteration #         37
 delta_qm =   0.531931E-07 delta_en =   0.647446E-10 tol =   0.100000E-10
 Iteration #         38
 delta_qm =   0.394836E-07 delta_en =   0.480580E-10 tol =   0.100000E-10
 Iteration #         39
 delta_qm =   0.293435E-07 delta_en =   0.357158E-10 tol =   0.100000E-10
 Iteration #         40
 delta_qm =   0.218169E-07 delta_en =   0.265547E-10 tol =   0.100000E-10
 Iteration #         41
 delta_qm =   0.162667E-07 delta_en =   0.197992E-10 tol =   0.100000E-10
 Iteration #         42
 delta_qm =   0.121702E-07 delta_en =   0.148131E-10 tol =   0.100000E-10
 Iteration #         43
 delta_qm =   0.912224E-08 delta_en =   0.111032E-10 tol =   0.100000E-10
 Iteration #         44
 delta_qm =   0.686995E-08 delta_en =   0.836184E-11 tol =   0.100000E-10
 Charges are converged, EXIT

%%%% ELECTRONS %%%%%%%%%%%%%%%%%%%%%%%%%%%%%%%%%%%%%%%%%%%%%%%%%%%%%%%%%%%%%%%%%
 number of electrons        =         89
 total electronic charge    =     89.0000000
 number of spin components  =  1

%%%% BOUNDARY %%%%%%%%%%%%%%%%%%%%%%%%%%%%%%%%%%%%%%%%%%%%%%%%%%%%%%%%%%%%%%%%%%
 boundary mode              = full                 
 boundary is built as a function of a smooth density
 function type              =  1 
 using the optimal SCCS function with parameters 
 rhomax                     =      0.0050000 
 rhomin                     =      0.0001000 
 volume of the QM region    =   1451.0370565 
 surface of the QM region   =    353.4224749 

%%%% DIELECTRIC %%%%%%%%%%%%%%%%%%%%%%%%%%%%%%%%%%%%%%%%%%%%%%%%%%%%%%%%%%%%%%%%%
 dielectric build on homogeneous background
 environment bulk permitt.  =    100.0000000 
 dielectric flags
 need gradient              =  F 
 need factor depend. sqrt   =  F 
 need gradient of logarithm =  T 

%%%% COMPUTE ELECTROSTATIC POTENTIAL %%%%%%%%%%%%%%%%%%%%%%%%%%%%%%%%%%%%%%%%%%%
 Starting from polarization: rhoiter =      1.473472 jellium =      0.000000
 Iteration #          1
 delta_qm =   0.201507E-03 delta_en =   0.245267E-06 tol =   0.100000E-10
 Iteration #          2
 delta_qm =   0.233641E-03 delta_en =   0.284378E-06 tol =   0.100000E-10
 Iteration #          3
 delta_qm =   0.154022E-03 delta_en =   0.187469E-06 tol =   0.100000E-10
 Iteration #          4
 delta_qm =   0.100078E-03 delta_en =   0.121811E-06 tol =   0.100000E-10
 Iteration #          5
 delta_qm =   0.650849E-04 delta_en =   0.792188E-07 tol =   0.100000E-10
 Iteration #          6
 delta_qm =   0.538768E-04 delta_en =   0.655768E-07 tol =   0.100000E-10
 Iteration #          7
 delta_qm =   0.386008E-04 delta_en =   0.469834E-07 tol =   0.100000E-10
 Iteration #          8
 delta_qm =   0.284796E-04 delta_en =   0.346643E-07 tol =   0.100000E-10
 Iteration #          9
 delta_qm =   0.250985E-04 delta_en =   0.305489E-07 tol =   0.100000E-10
 Iteration #         10
 delta_qm =   0.228474E-04 delta_en =   0.278089E-07 tol =   0.100000E-10
 Iteration #         11
 delta_qm =   0.214463E-04 delta_en =   0.261036E-07 tol =   0.100000E-10
 Iteration #         12
 delta_qm =   0.205889E-04 delta_en =   0.250600E-07 tol =   0.100000E-10
 Iteration #         13
 delta_qm =   0.188478E-04 delta_en =   0.229408E-07 tol =   0.100000E-10
 Iteration #         14
 delta_qm =   0.163970E-04 delta_en =   0.199578E-07 tol =   0.100000E-10
 Iteration #         15
 delta_qm =   0.140060E-04 delta_en =   0.170476E-07 tol =   0.100000E-10
 Iteration #         16
 delta_qm =   0.118622E-04 delta_en =   0.144383E-07 tol =   0.100000E-10
 Iteration #         17
 delta_qm =   0.994172E-05 delta_en =   0.121007E-07 tol =   0.100000E-10
 Iteration #         18
 delta_qm =   0.826882E-05 delta_en =   0.100645E-07 tol =   0.100000E-10
 Iteration #         19
 delta_qm =   0.678807E-05 delta_en =   0.826217E-08 tol =   0.100000E-10
 Iteration #         20
 delta_qm =   0.545350E-05 delta_en =   0.663779E-08 tol =   0.100000E-10
 Iteration #         21
 delta_qm =   0.430197E-05 delta_en =   0.523619E-08 tol =   0.100000E-10
 Iteration #         22
 delta_qm =   0.335932E-05 delta_en =   0.408884E-08 tol =   0.100000E-10
 Iteration #         23
 delta_qm =   0.260280E-05 delta_en =   0.316802E-08 tol =   0.100000E-10
 Iteration #         24
 delta_qm =   0.200281E-05 delta_en =   0.243774E-08 tol =   0.100000E-10
 Iteration #         25
 delta_qm =   0.153327E-05 delta_en =   0.186624E-08 tol =   0.100000E-10
 Iteration #         26
 delta_qm =   0.116513E-05 delta_en =   0.141816E-08 tol =   0.100000E-10
 Iteration #         27
 delta_qm =   0.876348E-06 delta_en =   0.106666E-08 tol =   0.100000E-10
 Iteration #         28
 delta_qm =   0.653935E-06 delta_en =   0.795944E-09 tol =   0.100000E-10
 Iteration #         29
 delta_qm =   0.485701E-06 delta_en =   0.591176E-09 tol =   0.100000E-10
 Iteration #         30
 delta_qm =   0.359274E-06 delta_en =   0.437295E-09 tol =   0.100000E-10
 Iteration #         31
 delta_qm =   0.264987E-06 delta_en =   0.322532E-09 tol =   0.100000E-10
 Iteration #         32
 delta_qm =   0.195106E-06 delta_en =   0.237475E-09 tol =   0.100000E-10
 Iteration #         33
 delta_qm =   0.143083E-06 delta_en =   0.174156E-09 tol =   0.100000E-10
 Iteration #         34
 delta_qm =   0.104339E-06 delta_en =   0.126997E-09 tol =   0.100000E-10
 Iteration #         35
 delta_qm =   0.759079E-07 delta_en =   0.923921E-10 tol =   0.100000E-10
 Iteration #         36
 delta_qm =   0.553840E-07 delta_en =   0.674113E-10 tol =   0.100000E-10
 Iteration #         37
 delta_qm =   0.406078E-07 delta_en =   0.494263E-10 tol =   0.100000E-10
 Iteration #         38
 delta_qm =   0.298384E-07 delta_en =   0.363181E-10 tol =   0.100000E-10
 Iteration #         39
 delta_qm =   0.218807E-07 delta_en =   0.266324E-10 tol =   0.100000E-10
 Iteration #         40
 delta_qm =   0.160295E-07 delta_en =   0.195105E-10 tol =   0.100000E-10
 Iteration #         41
 delta_qm =   0.117927E-07 delta_en =   0.143536E-10 tol =   0.100000E-10
 Iteration #         42
 delta_qm =   0.870468E-08 delta_en =   0.105950E-10 tol =   0.100000E-10
 Iteration #         43
 delta_qm =   0.641265E-08 delta_en =   0.780523E-11 tol =   0.100000E-10
 Charges are converged, EXIT

%%%% ELECTRONS %%%%%%%%%%%%%%%%%%%%%%%%%%%%%%%%%%%%%%%%%%%%%%%%%%%%%%%%%%%%%%%%%
 number of electrons        =         89
 total electronic charge    =     89.0000000
 number of spin components  =  1

%%%% BOUNDARY %%%%%%%%%%%%%%%%%%%%%%%%%%%%%%%%%%%%%%%%%%%%%%%%%%%%%%%%%%%%%%%%%%
 boundary mode              = full                 
 boundary is built as a function of a smooth density
 function type              =  1 
 using the optimal SCCS function with parameters 
 rhomax                     =      0.0050000 
 rhomin                     =      0.0001000 
 volume of the QM region    =   1463.4368080 
 surface of the QM region   =    331.8086810 

%%%% DIELECTRIC %%%%%%%%%%%%%%%%%%%%%%%%%%%%%%%%%%%%%%%%%%%%%%%%%%%%%%%%%%%%%%%%%
 dielectric build on homogeneous background
 environment bulk permitt.  =    100.0000000 
 dielectric flags
 need gradient              =  F 
 need factor depend. sqrt   =  F 
 need gradient of logarithm =  T 

%%%% COMPUTE ELECTROSTATIC POTENTIAL %%%%%%%%%%%%%%%%%%%%%%%%%%%%%%%%%%%%%%%%%%%
 Starting from polarization: rhoiter =      1.490408 jellium =      0.000000
 Iteration #          1
 delta_qm =   0.220836E-03 delta_en =   0.268793E-06 tol =   0.100000E-10
 Iteration #          2
 delta_qm =   0.222358E-03 delta_en =   0.270645E-06 tol =   0.100000E-10
 Iteration #          3
 delta_qm =   0.161230E-03 delta_en =   0.196242E-06 tol =   0.100000E-10
 Iteration #          4
 delta_qm =   0.102522E-03 delta_en =   0.124786E-06 tol =   0.100000E-10
 Iteration #          5
 delta_qm =   0.692056E-04 delta_en =   0.842343E-07 tol =   0.100000E-10
 Iteration #          6
 delta_qm =   0.573027E-04 delta_en =   0.697466E-07 tol =   0.100000E-10
 Iteration #          7
 delta_qm =   0.420605E-04 delta_en =   0.511944E-07 tol =   0.100000E-10
 Iteration #          8
 delta_qm =   0.322087E-04 delta_en =   0.392031E-07 tol =   0.100000E-10
 Iteration #          9
 delta_qm =   0.286900E-04 delta_en =   0.349203E-07 tol =   0.100000E-10
 Iteration #         10
 delta_qm =   0.262207E-04 delta_en =   0.319148E-07 tol =   0.100000E-10
 Iteration #         11
 delta_qm =   0.243610E-04 delta_en =   0.296513E-07 tol =   0.100000E-10
 Iteration #         12
 delta_qm =   0.229459E-04 delta_en =   0.279289E-07 tol =   0.100000E-10
 Iteration #         13
 delta_qm =   0.207366E-04 delta_en =   0.252398E-07 tol =   0.100000E-10
 Iteration #         14
 delta_qm =   0.178512E-04 delta_en =   0.217278E-07 tol =   0.100000E-10
 Iteration #         15
 delta_qm =   0.150576E-04 delta_en =   0.183276E-07 tol =   0.100000E-10
 Iteration #         16
 delta_qm =   0.125964E-04 delta_en =   0.153318E-07 tol =   0.100000E-10
 Iteration #         17
 delta_qm =   0.104434E-04 delta_en =   0.127113E-07 tol =   0.100000E-10
 Iteration #         18
 delta_qm =   0.860636E-05 delta_en =   0.104753E-07 tol =   0.100000E-10
 Iteration #         19
 delta_qm =   0.701858E-05 delta_en =   0.854274E-08 tol =   0.100000E-10
 Iteration #         20
 delta_qm =   0.561164E-05 delta_en =   0.683027E-08 tol =   0.100000E-10
 Iteration #         21
 delta_qm =   0.440426E-05 delta_en =   0.536070E-08 tol =   0.100000E-10
 Iteration #         22
 delta_qm =   0.341991E-05 delta_en =   0.416258E-08 tol =   0.100000E-10
 Iteration #         23
 delta_qm =   0.263612E-05 delta_en =   0.320858E-08 tol =   0.100000E-10
 Iteration #         24
 delta_qm =   0.201917E-05 delta_en =   0.245766E-08 tol =   0.100000E-10
 Iteration #         25
 delta_qm =   0.153906E-05 delta_en =   0.187328E-08 tol =   0.100000E-10
 Iteration #         26
 delta_qm =   0.116481E-05 delta_en =   0.141776E-08 tol =   0.100000E-10
 Iteration #         27
 delta_qm =   0.873132E-06 delta_en =   0.106274E-08 tol =   0.100000E-10
 Iteration #         28
 delta_qm =   0.649949E-06 delta_en =   0.791093E-09 tol =   0.100000E-10
 Iteration #         29
 delta_qm =   0.481797E-06 delta_en =   0.586425E-09 tol =   0.100000E-10
 Iteration #         30
 delta_qm =   0.355255E-06 delta_en =   0.432403E-09 tol =   0.100000E-10
 Iteration #         31
 delta_qm =   0.260753E-06 delta_en =   0.317379E-09 tol =   0.100000E-10
 Iteration #         32
 delta_qm =   0.191157E-06 delta_en =   0.232668E-09 tol =   0.100000E-10
 Iteration #         33
 delta_qm =   0.139775E-06 delta_en =   0.170129E-09 tol =   0.100000E-10
 Iteration #         34
 delta_qm =   0.101452E-06 delta_en =   0.123484E-09 tol =   0.100000E-10
 Iteration #         35
 delta_qm =   0.731361E-07 delta_en =   0.890185E-10 tol =   0.100000E-10
 Iteration #         36
 delta_qm =   0.527594E-07 delta_en =   0.642167E-10 tol =   0.100000E-10
 Iteration #         37
 delta_qm =   0.383600E-07 delta_en =   0.466903E-10 tol =   0.100000E-10
 Iteration #         38
 delta_qm =   0.280679E-07 delta_en =   0.341632E-10 tol =   0.100000E-10
 Iteration #         39
 delta_qm =   0.204680E-07 delta_en =   0.249129E-10 tol =   0.100000E-10
 Iteration #         40
 delta_qm =   0.148052E-07 delta_en =   0.180203E-10 tol =   0.100000E-10
 Iteration #         41
 delta_qm =   0.107240E-07 delta_en =   0.130528E-10 tol =   0.100000E-10
 Iteration #         42
 delta_qm =   0.785595E-08 delta_en =   0.956195E-11 tol =   0.100000E-10
 Charges are converged, EXIT

%%%% ELECTRONS %%%%%%%%%%%%%%%%%%%%%%%%%%%%%%%%%%%%%%%%%%%%%%%%%%%%%%%%%%%%%%%%%
 number of electrons        =         89
 total electronic charge    =     89.0000000
 number of spin components  =  1

%%%% BOUNDARY %%%%%%%%%%%%%%%%%%%%%%%%%%%%%%%%%%%%%%%%%%%%%%%%%%%%%%%%%%%%%%%%%%
 boundary mode              = full                 
 boundary is built as a function of a smooth density
 function type              =  1 
 using the optimal SCCS function with parameters 
 rhomax                     =      0.0050000 
 rhomin                     =      0.0001000 
 volume of the QM region    =   1353.5540104 
 surface of the QM region   =    267.0189956 

%%%% DIELECTRIC %%%%%%%%%%%%%%%%%%%%%%%%%%%%%%%%%%%%%%%%%%%%%%%%%%%%%%%%%%%%%%%%%
 dielectric build on homogeneous background
 environment bulk permitt.  =    100.0000000 
 dielectric flags
 need gradient              =  F 
 need factor depend. sqrt   =  F 
 need gradient of logarithm =  T 

%%%% COMPUTE ELECTROSTATIC POTENTIAL %%%%%%%%%%%%%%%%%%%%%%%%%%%%%%%%%%%%%%%%%%%
 Starting from polarization: rhoiter =      1.505910 jellium =      0.000000
 Iteration #          1
 delta_qm =   0.109921E-02 delta_en =   0.133792E-05 tol =   0.100000E-10
 Iteration #          2
 delta_qm =   0.124530E-02 delta_en =   0.151573E-05 tol =   0.100000E-10
 Iteration #          3
 delta_qm =   0.477173E-03 delta_en =   0.580797E-06 tol =   0.100000E-10
 Iteration #          4
 delta_qm =   0.382175E-03 delta_en =   0.465168E-06 tol =   0.100000E-10
 Iteration #          5
 delta_qm =   0.207531E-03 delta_en =   0.252598E-06 tol =   0.100000E-10
 Iteration #          6
 delta_qm =   0.165159E-03 delta_en =   0.201025E-06 tol =   0.100000E-10
 Iteration #          7
 delta_qm =   0.126416E-03 delta_en =   0.153868E-06 tol =   0.100000E-10
 Iteration #          8
 delta_qm =   0.831445E-04 delta_en =   0.101200E-06 tol =   0.100000E-10
 Iteration #          9
 delta_qm =   0.626113E-04 delta_en =   0.762081E-07 tol =   0.100000E-10
 Iteration #         10
 delta_qm =   0.508218E-04 delta_en =   0.618584E-07 tol =   0.100000E-10
 Iteration #         11
 delta_qm =   0.348933E-04 delta_en =   0.424707E-07 tol =   0.100000E-10
 Iteration #         12
 delta_qm =   0.236456E-04 delta_en =   0.287805E-07 tol =   0.100000E-10
 Iteration #         13
 delta_qm =   0.194177E-04 delta_en =   0.236345E-07 tol =   0.100000E-10
 Iteration #         14
 delta_qm =   0.149712E-04 delta_en =   0.182223E-07 tol =   0.100000E-10
 Iteration #         15
 delta_qm =   0.108321E-04 delta_en =   0.131844E-07 tol =   0.100000E-10
 Iteration #         16
 delta_qm =   0.914374E-05 delta_en =   0.111294E-07 tol =   0.100000E-10
 Iteration #         17
 delta_qm =   0.807946E-05 delta_en =   0.983400E-08 tol =   0.100000E-10
 Iteration #         18
 delta_qm =   0.699205E-05 delta_en =   0.851045E-08 tol =   0.100000E-10
 Iteration #         19
 delta_qm =   0.628596E-05 delta_en =   0.765103E-08 tol =   0.100000E-10
 Iteration #         20
 delta_qm =   0.556652E-05 delta_en =   0.677535E-08 tol =   0.100000E-10
 Iteration #         21
 delta_qm =   0.464448E-05 delta_en =   0.565309E-08 tol =   0.100000E-10
 Iteration #         22
 delta_qm =   0.377308E-05 delta_en =   0.459245E-08 tol =   0.100000E-10
 Iteration #         23
 delta_qm =   0.306247E-05 delta_en =   0.372752E-08 tol =   0.100000E-10
 Iteration #         24
 delta_qm =   0.246014E-05 delta_en =   0.299439E-08 tol =   0.100000E-10
 Iteration #         25
 delta_qm =   0.195981E-05 delta_en =   0.238540E-08 tol =   0.100000E-10
 Iteration #         26
 delta_qm =   0.155817E-05 delta_en =   0.189654E-08 tol =   0.100000E-10
 Iteration #         27
 delta_qm =   0.122079E-05 delta_en =   0.148590E-08 tol =   0.100000E-10
 Iteration #         28
 delta_qm =   0.936362E-06 delta_en =   0.113970E-08 tol =   0.100000E-10
 Iteration #         29
 delta_qm =   0.711337E-06 delta_en =   0.865812E-09 tol =   0.100000E-10
 Iteration #         30
 delta_qm =   0.538544E-06 delta_en =   0.655495E-09 tol =   0.100000E-10
 Iteration #         31
 delta_qm =   0.405022E-06 delta_en =   0.492976E-09 tol =   0.100000E-10
 Iteration #         32
 delta_qm =   0.303559E-06 delta_en =   0.369480E-09 tol =   0.100000E-10
 Iteration #         33
 delta_qm =   0.227205E-06 delta_en =   0.276545E-09 tol =   0.100000E-10
 Iteration #         34
 delta_qm =   0.168475E-06 delta_en =   0.205061E-09 tol =   0.100000E-10
 Iteration #         35
 delta_qm =   0.123410E-06 delta_en =   0.150210E-09 tol =   0.100000E-10
 Iteration #         36
 delta_qm =   0.900159E-07 delta_en =   0.109564E-09 tol =   0.100000E-10
 Iteration #         37
 delta_qm =   0.657654E-07 delta_en =   0.800471E-10 tol =   0.100000E-10
 Iteration #         38
 delta_qm =   0.482120E-07 delta_en =   0.586817E-10 tol =   0.100000E-10
 Iteration #         39
 delta_qm =   0.355115E-07 delta_en =   0.432232E-10 tol =   0.100000E-10
 Iteration #         40
 delta_qm =   0.261318E-07 delta_en =   0.318066E-10 tol =   0.100000E-10
 Iteration #         41
 delta_qm =   0.190703E-07 delta_en =   0.232116E-10 tol =   0.100000E-10
 Iteration #         42
 delta_qm =   0.138651E-07 delta_en =   0.168761E-10 tol =   0.100000E-10
 Iteration #         43
 delta_qm =   0.101260E-07 delta_en =   0.123249E-10 tol =   0.100000E-10
 Iteration #         44
 delta_qm =   0.741367E-08 delta_en =   0.902364E-11 tol =   0.100000E-10
 Charges are converged, EXIT

%%%% ELECTRONS %%%%%%%%%%%%%%%%%%%%%%%%%%%%%%%%%%%%%%%%%%%%%%%%%%%%%%%%%%%%%%%%%
 number of electrons        =         89
 total electronic charge    =     89.0000000
 number of spin components  =  1

%%%% BOUNDARY %%%%%%%%%%%%%%%%%%%%%%%%%%%%%%%%%%%%%%%%%%%%%%%%%%%%%%%%%%%%%%%%%%
 boundary mode              = full                 
 boundary is built as a function of a smooth density
 function type              =  1 
 using the optimal SCCS function with parameters 
 rhomax                     =      0.0050000 
 rhomin                     =      0.0001000 
 volume of the QM region    =   1364.5155029 
 surface of the QM region   =    267.1767867 

%%%% DIELECTRIC %%%%%%%%%%%%%%%%%%%%%%%%%%%%%%%%%%%%%%%%%%%%%%%%%%%%%%%%%%%%%%%%%
 dielectric build on homogeneous background
 environment bulk permitt.  =    100.0000000 
 dielectric flags
 need gradient              =  F 
 need factor depend. sqrt   =  F 
 need gradient of logarithm =  T 

%%%% COMPUTE ELECTROSTATIC POTENTIAL %%%%%%%%%%%%%%%%%%%%%%%%%%%%%%%%%%%%%%%%%%%
 Starting from polarization: rhoiter =      1.277038 jellium =      0.000000
 Iteration #          1
 delta_qm =   0.498446E-03 delta_en =   0.606689E-06 tol =   0.100000E-10
 Iteration #          2
 delta_qm =   0.517830E-03 delta_en =   0.630283E-06 tol =   0.100000E-10
 Iteration #          3
 delta_qm =   0.292680E-03 delta_en =   0.356239E-06 tol =   0.100000E-10
 Iteration #          4
 delta_qm =   0.174736E-03 delta_en =   0.212682E-06 tol =   0.100000E-10
 Iteration #          5
 delta_qm =   0.119613E-03 delta_en =   0.145589E-06 tol =   0.100000E-10
 Iteration #          6
 delta_qm =   0.946035E-04 delta_en =   0.115148E-06 tol =   0.100000E-10
 Iteration #          7
 delta_qm =   0.675197E-04 delta_en =   0.821824E-07 tol =   0.100000E-10
 Iteration #          8
 delta_qm =   0.589684E-04 delta_en =   0.717740E-07 tol =   0.100000E-10
 Iteration #          9
 delta_qm =   0.581457E-04 delta_en =   0.707726E-07 tol =   0.100000E-10
 Iteration #         10
 delta_qm =   0.574940E-04 delta_en =   0.699795E-07 tol =   0.100000E-10
 Iteration #         11
 delta_qm =   0.569968E-04 delta_en =   0.693743E-07 tol =   0.100000E-10
 Iteration #         12
 delta_qm =   0.544222E-04 delta_en =   0.662405E-07 tol =   0.100000E-10
 Iteration #         13
 delta_qm =   0.491421E-04 delta_en =   0.598138E-07 tol =   0.100000E-10
 Iteration #         14
 delta_qm =   0.428700E-04 delta_en =   0.521797E-07 tol =   0.100000E-10
 Iteration #         15
 delta_qm =   0.368518E-04 delta_en =   0.448546E-07 tol =   0.100000E-10
 Iteration #         16
 delta_qm =   0.313099E-04 delta_en =   0.381092E-07 tol =   0.100000E-10
 Iteration #         17
 delta_qm =   0.262893E-04 delta_en =   0.319983E-07 tol =   0.100000E-10
 Iteration #         18
 delta_qm =   0.217930E-04 delta_en =   0.265256E-07 tol =   0.100000E-10
 Iteration #         19
 delta_qm =   0.177531E-04 delta_en =   0.216084E-07 tol =   0.100000E-10
 Iteration #         20
 delta_qm =   0.141927E-04 delta_en =   0.172748E-07 tol =   0.100000E-10
 Iteration #         21
 delta_qm =   0.111872E-04 delta_en =   0.136166E-07 tol =   0.100000E-10
 Iteration #         22
 delta_qm =   0.873504E-05 delta_en =   0.106319E-07 tol =   0.100000E-10
 Iteration #         23
 delta_qm =   0.676894E-05 delta_en =   0.823889E-08 tol =   0.100000E-10
 Iteration #         24
 delta_qm =   0.521146E-05 delta_en =   0.634318E-08 tol =   0.100000E-10
 Iteration #         25
 delta_qm =   0.398478E-05 delta_en =   0.485012E-08 tol =   0.100000E-10
 Iteration #         26
 delta_qm =   0.301979E-05 delta_en =   0.367558E-08 tol =   0.100000E-10
 Iteration #         27
 delta_qm =   0.226742E-05 delta_en =   0.275981E-08 tol =   0.100000E-10
 Iteration #         28
 delta_qm =   0.169028E-05 delta_en =   0.205735E-08 tol =   0.100000E-10
 Iteration #         29
 delta_qm =   0.125326E-05 delta_en =   0.152541E-08 tol =   0.100000E-10
 Iteration #         30
 delta_qm =   0.925172E-06 delta_en =   0.112608E-08 tol =   0.100000E-10
 Iteration #         31
 delta_qm =   0.680588E-06 delta_en =   0.828386E-09 tol =   0.100000E-10
 Iteration #         32
 delta_qm =   0.498582E-06 delta_en =   0.606854E-09 tol =   0.100000E-10
 Iteration #         33
 delta_qm =   0.363175E-06 delta_en =   0.442043E-09 tol =   0.100000E-10
 Iteration #         34
 delta_qm =   0.263280E-06 delta_en =   0.320454E-09 tol =   0.100000E-10
 Iteration #         35
 delta_qm =   0.190535E-06 delta_en =   0.231912E-09 tol =   0.100000E-10
 Iteration #         36
 delta_qm =   0.137896E-06 delta_en =   0.167842E-09 tol =   0.100000E-10
 Iteration #         37
 delta_qm =   0.997714E-07 delta_en =   0.121438E-09 tol =   0.100000E-10
 Iteration #         38
 delta_qm =   0.720920E-07 delta_en =   0.877475E-10 tol =   0.100000E-10
 Iteration #         39
 delta_qm =   0.519702E-07 delta_en =   0.632561E-10 tol =   0.100000E-10
 Iteration #         40
 delta_qm =   0.373772E-07 delta_en =   0.454940E-10 tol =   0.100000E-10
 Iteration #         41
 delta_qm =   0.268473E-07 delta_en =   0.326775E-10 tol =   0.100000E-10
 Iteration #         42
 delta_qm =   0.192680E-07 delta_en =   0.234523E-10 tol =   0.100000E-10
 Iteration #         43
 delta_qm =   0.138343E-07 delta_en =   0.168386E-10 tol =   0.100000E-10
 Iteration #         44
 delta_qm =   0.998321E-08 delta_en =   0.121512E-10 tol =   0.100000E-10
 Iteration #         45
 delta_qm =   0.726342E-08 delta_en =   0.884076E-11 tol =   0.100000E-10
 Charges are converged, EXIT

%%%% ELECTRONS %%%%%%%%%%%%%%%%%%%%%%%%%%%%%%%%%%%%%%%%%%%%%%%%%%%%%%%%%%%%%%%%%
 number of electrons        =         89
 total electronic charge    =     89.0000000
 number of spin components  =  1

%%%% BOUNDARY %%%%%%%%%%%%%%%%%%%%%%%%%%%%%%%%%%%%%%%%%%%%%%%%%%%%%%%%%%%%%%%%%%
 boundary mode              = full                 
 boundary is built as a function of a smooth density
 function type              =  1 
 using the optimal SCCS function with parameters 
 rhomax                     =      0.0050000 
 rhomin                     =      0.0001000 
 volume of the QM region    =   1360.2109685 
 surface of the QM region   =    267.2406507 

%%%% DIELECTRIC %%%%%%%%%%%%%%%%%%%%%%%%%%%%%%%%%%%%%%%%%%%%%%%%%%%%%%%%%%%%%%%%%
 dielectric build on homogeneous background
 environment bulk permitt.  =    100.0000000 
 dielectric flags
 need gradient              =  F 
 need factor depend. sqrt   =  F 
 need gradient of logarithm =  T 

%%%% COMPUTE ELECTROSTATIC POTENTIAL %%%%%%%%%%%%%%%%%%%%%%%%%%%%%%%%%%%%%%%%%%%
 Starting from polarization: rhoiter =      1.239527 jellium =      0.000000
 Iteration #          1
 delta_qm =   0.221941E-03 delta_en =   0.270138E-06 tol =   0.100000E-10
 Iteration #          2
 delta_qm =   0.119169E-03 delta_en =   0.145048E-06 tol =   0.100000E-10
 Iteration #          3
 delta_qm =   0.905656E-04 delta_en =   0.110233E-06 tol =   0.100000E-10
 Iteration #          4
 delta_qm =   0.601011E-04 delta_en =   0.731527E-07 tol =   0.100000E-10
 Iteration #          5
 delta_qm =   0.413017E-04 delta_en =   0.502709E-07 tol =   0.100000E-10
 Iteration #          6
 delta_qm =   0.316099E-04 delta_en =   0.384744E-07 tol =   0.100000E-10
 Iteration #          7
 delta_qm =   0.242306E-04 delta_en =   0.294925E-07 tol =   0.100000E-10
 Iteration #          8
 delta_qm =   0.196617E-04 delta_en =   0.239315E-07 tol =   0.100000E-10
 Iteration #          9
 delta_qm =   0.165266E-04 delta_en =   0.201156E-07 tol =   0.100000E-10
 Iteration #         10
 delta_qm =   0.145052E-04 delta_en =   0.176552E-07 tol =   0.100000E-10
 Iteration #         11
 delta_qm =   0.136226E-04 delta_en =   0.165809E-07 tol =   0.100000E-10
 Iteration #         12
 delta_qm =   0.129721E-04 delta_en =   0.157892E-07 tol =   0.100000E-10
 Iteration #         13
 delta_qm =   0.120634E-04 delta_en =   0.146831E-07 tol =   0.100000E-10
 Iteration #         14
 delta_qm =   0.108467E-04 delta_en =   0.132022E-07 tol =   0.100000E-10
 Iteration #         15
 delta_qm =   0.940686E-05 delta_en =   0.114497E-07 tol =   0.100000E-10
 Iteration #         16
 delta_qm =   0.793318E-05 delta_en =   0.965596E-08 tol =   0.100000E-10
 Iteration #         17
 delta_qm =   0.658701E-05 delta_en =   0.801745E-08 tol =   0.100000E-10
 Iteration #         18
 delta_qm =   0.542574E-05 delta_en =   0.660400E-08 tol =   0.100000E-10
 Iteration #         19
 delta_qm =   0.444377E-05 delta_en =   0.540878E-08 tol =   0.100000E-10
 Iteration #         20
 delta_qm =   0.360729E-05 delta_en =   0.439065E-08 tol =   0.100000E-10
 Iteration #         21
 delta_qm =   0.288311E-05 delta_en =   0.350921E-08 tol =   0.100000E-10
 Iteration #         22
 delta_qm =   0.226337E-05 delta_en =   0.275488E-08 tol =   0.100000E-10
 Iteration #         23
 delta_qm =   0.175319E-05 delta_en =   0.213392E-08 tol =   0.100000E-10
 Iteration #         24
 delta_qm =   0.134735E-05 delta_en =   0.163995E-08 tol =   0.100000E-10
 Iteration #         25
 delta_qm =   0.102911E-05 delta_en =   0.125259E-08 tol =   0.100000E-10
 Iteration #         26
 delta_qm =   0.780497E-06 delta_en =   0.949991E-09 tol =   0.100000E-10
 Iteration #         27
 delta_qm =   0.587430E-06 delta_en =   0.714997E-09 tol =   0.100000E-10
 Iteration #         28
 delta_qm =   0.439613E-06 delta_en =   0.535080E-09 tol =   0.100000E-10
 Iteration #         29
 delta_qm =   0.328225E-06 delta_en =   0.399503E-09 tol =   0.100000E-10
 Iteration #         30
 delta_qm =   0.244327E-06 delta_en =   0.297385E-09 tol =   0.100000E-10
 Iteration #         31
 delta_qm =   0.180425E-06 delta_en =   0.219606E-09 tol =   0.100000E-10
 Iteration #         32
 delta_qm =   0.132122E-06 delta_en =   0.160814E-09 tol =   0.100000E-10
 Iteration #         33
 delta_qm =   0.966815E-07 delta_en =   0.117677E-09 tol =   0.100000E-10
 Iteration #         34
 delta_qm =   0.709664E-07 delta_en =   0.863776E-10 tol =   0.100000E-10
 Iteration #         35
 delta_qm =   0.517878E-07 delta_en =   0.630342E-10 tol =   0.100000E-10
 Iteration #         36
 delta_qm =   0.372779E-07 delta_en =   0.453732E-10 tol =   0.100000E-10
 Iteration #         37
 delta_qm =   0.267979E-07 delta_en =   0.326174E-10 tol =   0.100000E-10
 Iteration #         38
 delta_qm =   0.197173E-07 delta_en =   0.239992E-10 tol =   0.100000E-10
 Iteration #         39
 delta_qm =   0.148272E-07 delta_en =   0.180470E-10 tol =   0.100000E-10
 Iteration #         40
 delta_qm =   0.110321E-07 delta_en =   0.134279E-10 tol =   0.100000E-10
 Iteration #         41
 delta_qm =   0.799498E-08 delta_en =   0.973118E-11 tol =   0.100000E-10
 Charges are converged, EXIT

%%%% ELECTRONS %%%%%%%%%%%%%%%%%%%%%%%%%%%%%%%%%%%%%%%%%%%%%%%%%%%%%%%%%%%%%%%%%
 number of electrons        =         89
 total electronic charge    =     89.0000000
 number of spin components  =  1

%%%% BOUNDARY %%%%%%%%%%%%%%%%%%%%%%%%%%%%%%%%%%%%%%%%%%%%%%%%%%%%%%%%%%%%%%%%%%
 boundary mode              = full                 
 boundary is built as a function of a smooth density
 function type              =  1 
 using the optimal SCCS function with parameters 
 rhomax                     =      0.0050000 
 rhomin                     =      0.0001000 
 volume of the QM region    =   1371.6526670 
 surface of the QM region   =    266.8797730 

%%%% DIELECTRIC %%%%%%%%%%%%%%%%%%%%%%%%%%%%%%%%%%%%%%%%%%%%%%%%%%%%%%%%%%%%%%%%%
 dielectric build on homogeneous background
 environment bulk permitt.  =    100.0000000 
 dielectric flags
 need gradient              =  F 
 need factor depend. sqrt   =  F 
 need gradient of logarithm =  T 

%%%% COMPUTE ELECTROSTATIC POTENTIAL %%%%%%%%%%%%%%%%%%%%%%%%%%%%%%%%%%%%%%%%%%%
 Starting from polarization: rhoiter =      1.236539 jellium =      0.000000
 Iteration #          1
 delta_qm =   0.150447E-03 delta_en =   0.183118E-06 tol =   0.100000E-10
 Iteration #          2
 delta_qm =   0.191787E-03 delta_en =   0.233436E-06 tol =   0.100000E-10
 Iteration #          3
 delta_qm =   0.108493E-03 delta_en =   0.132054E-06 tol =   0.100000E-10
 Iteration #          4
 delta_qm =   0.625290E-04 delta_en =   0.761079E-07 tol =   0.100000E-10
 Iteration #          5
 delta_qm =   0.406073E-04 delta_en =   0.494256E-07 tol =   0.100000E-10
 Iteration #          6
 delta_qm =   0.354713E-04 delta_en =   0.431743E-07 tol =   0.100000E-10
 Iteration #          7
 delta_qm =   0.229325E-04 delta_en =   0.279125E-07 tol =   0.100000E-10
 Iteration #          8
 delta_qm =   0.166535E-04 delta_en =   0.202700E-07 tol =   0.100000E-10
 Iteration #          9
 delta_qm =   0.146791E-04 delta_en =   0.178669E-07 tol =   0.100000E-10
 Iteration #         10
 delta_qm =   0.107989E-04 delta_en =   0.131440E-07 tol =   0.100000E-10
 Iteration #         11
 delta_qm =   0.740170E-05 delta_en =   0.900906E-08 tol =   0.100000E-10
 Iteration #         12
 delta_qm =   0.606076E-05 delta_en =   0.737692E-08 tol =   0.100000E-10
 Iteration #         13
 delta_qm =   0.474497E-05 delta_en =   0.577540E-08 tol =   0.100000E-10
 Iteration #         14
 delta_qm =   0.337953E-05 delta_en =   0.411343E-08 tol =   0.100000E-10
 Iteration #         15
 delta_qm =   0.279283E-05 delta_en =   0.339933E-08 tol =   0.100000E-10
 Iteration #         16
 delta_qm =   0.238651E-05 delta_en =   0.290476E-08 tol =   0.100000E-10
 Iteration #         17
 delta_qm =   0.179539E-05 delta_en =   0.218528E-08 tol =   0.100000E-10
 Iteration #         18
 delta_qm =   0.133583E-05 delta_en =   0.162593E-08 tol =   0.100000E-10
 Iteration #         19
 delta_qm =   0.107828E-05 delta_en =   0.131244E-08 tol =   0.100000E-10
 Iteration #         20
 delta_qm =   0.858624E-06 delta_en =   0.104508E-08 tol =   0.100000E-10
 Iteration #         21
 delta_qm =   0.676377E-06 delta_en =   0.823260E-09 tol =   0.100000E-10
 Iteration #         22
 delta_qm =   0.547723E-06 delta_en =   0.666667E-09 tol =   0.100000E-10
 Iteration #         23
 delta_qm =   0.430934E-06 delta_en =   0.524516E-09 tol =   0.100000E-10
 Iteration #         24
 delta_qm =   0.325467E-06 delta_en =   0.396145E-09 tol =   0.100000E-10
 Iteration #         25
 delta_qm =   0.248449E-06 delta_en =   0.302403E-09 tol =   0.100000E-10
 Iteration #         26
 delta_qm =   0.189852E-06 delta_en =   0.231081E-09 tol =   0.100000E-10
 Iteration #         27
 delta_qm =   0.141297E-06 delta_en =   0.171981E-09 tol =   0.100000E-10
 Iteration #         28
 delta_qm =   0.107188E-06 delta_en =   0.130466E-09 tol =   0.100000E-10
 Iteration #         29
 delta_qm =   0.843976E-07 delta_en =   0.102726E-09 tol =   0.100000E-10
 Iteration #         30
 delta_qm =   0.652156E-07 delta_en =   0.793779E-10 tol =   0.100000E-10
 Iteration #         31
 delta_qm =   0.485543E-07 delta_en =   0.590984E-10 tol =   0.100000E-10
 Iteration #         32
 delta_qm =   0.357539E-07 delta_en =   0.435182E-10 tol =   0.100000E-10
 Iteration #         33
 delta_qm =   0.265209E-07 delta_en =   0.322803E-10 tol =   0.100000E-10
 Iteration #         34
 delta_qm =   0.201165E-07 delta_en =   0.244851E-10 tol =   0.100000E-10
 Iteration #         35
 delta_qm =   0.155215E-07 delta_en =   0.188922E-10 tol =   0.100000E-10
 Iteration #         36
 delta_qm =   0.116105E-07 delta_en =   0.141318E-10 tol =   0.100000E-10
 Iteration #         37
 delta_qm =   0.834549E-08 delta_en =   0.101578E-10 tol =   0.100000E-10
 Iteration #         38
 delta_qm =   0.626258E-08 delta_en =   0.762257E-11 tol =   0.100000E-10
 Charges are converged, EXIT

%%%% ELECTRONS %%%%%%%%%%%%%%%%%%%%%%%%%%%%%%%%%%%%%%%%%%%%%%%%%%%%%%%%%%%%%%%%%
 number of electrons        =         89
 total electronic charge    =     89.0000000
 number of spin components  =  1

%%%% BOUNDARY %%%%%%%%%%%%%%%%%%%%%%%%%%%%%%%%%%%%%%%%%%%%%%%%%%%%%%%%%%%%%%%%%%
 boundary mode              = full                 
 boundary is built as a function of a smooth density
 function type              =  1 
 using the optimal SCCS function with parameters 
 rhomax                     =      0.0050000 
 rhomin                     =      0.0001000 
 volume of the QM region    =   1371.6526670 
 surface of the QM region   =    266.8797730 

%%%% DIELECTRIC %%%%%%%%%%%%%%%%%%%%%%%%%%%%%%%%%%%%%%%%%%%%%%%%%%%%%%%%%%%%%%%%%
 dielectric build on homogeneous background
 environment bulk permitt.  =    100.0000000 
 dielectric flags
 need gradient              =  F 
 need factor depend. sqrt   =  F 
 need gradient of logarithm =  T 
