
     Program PWSCF v.6.1 (svn rev. 13369) starts on  1Feb2018 at 12:32:13 

     This program is part of the open-source Quantum ESPRESSO suite
     for quantum simulation of materials; please cite
         "P. Giannozzi et al., J. Phys.:Condens. Matter 21 395502 (2009);
          URL http://www.quantum-espresso.org", 
     in publications or presentations arising from this work. More details at
     http://www.quantum-espresso.org/quote

     Parallel version (MPI), running on     1 processors
     Reading input from neutral.in

     Current dimensions of program PWSCF are:
     Max number of different atomic species (ntypx) = 10
     Max number of k-points (npk) =  40000
     Max angular momentum in pseudopotentials (lmaxx) =  3
               file C.pbe-rrkjus.UPF: wavefunction(s)  2S 2P renormalized
               file O.pbe-rrkjus.UPF: wavefunction(s)  2S renormalized

     gamma-point specific algorithms are used

     Subspace diagonalization in iterative solution of the eigenvalue problem:
     a serial algorithm will be used

 
     G-vector sticks info
     --------------------
     sticks:   dense  smooth     PW     G-vecs:    dense   smooth      PW
     Sum        2357    1099    269               366833   116965   14571
 


     bravais-lattice index     =            8
     lattice parameter (alat)  =      10.6881  a.u.
     unit-cell volume          =    4181.1215 (a.u.)^3
     number of atoms/cell      =           10
     number of atomic types    =            3
     number of electrons       =        90.00
     number of Kohn-Sham states=           80
     kinetic-energy cutoff     =      35.0000  Ry
     charge density cutoff     =     300.0000  Ry
     convergence threshold     =      5.0E-03
     mixing beta               =       0.7000
     number of iterations used =            8  plain     mixing
     Exchange-correlation      = PBE ( 1  4  3  4 0 0)
 

     Environ Module
     ==============

     Plese cite
         O. Andreussi, I. Dabo and N. Marzari, J. Chem. Phys. 136, 064102 (2012)         
     in publications or presentations arising from this work.

     compensation onset threshold      =               0.1000E+03 
     static permittivity               =                   100.00 
     epsilon calculation mode          =                     full 

     Electrostatic Setup
     -------------------
     electrostatic problem to solve    = generalized              
     numerical solver adopted          = cg                       
     type of auxiliary density adopted = none                     
     type of core tool for poisson     = fft                      
     type of core tool for s(r) deriv  = analytic                 



     celldm(1)=  10.688100  celldm(2)=   0.866025  celldm(3)=   3.954220
     celldm(4)=   0.000000  celldm(5)=   0.000000  celldm(6)=   0.000000

     crystal axes: (cart. coord. in units of alat)
               a(1) = (   1.000000   0.000000   0.000000 )  
               a(2) = (   0.000000   0.866025   0.000000 )  
               a(3) = (   0.000000   0.000000   3.954220 )  

     reciprocal axes: (cart. coord. in units 2 pi/alat)
               b(1) = (  1.000000  0.000000  0.000000 )  
               b(2) = (  0.000000  1.154701  0.000000 )  
               b(3) = (  0.000000  0.000000  0.252894 )  


     PseudoPot. # 1 for C  read from file:
     /home/fnattino/Programs/qe-6.1/Environ/tests/../..//pseudo/C.pbe-rrkjus.UPF
     MD5 check sum: 00fb224312de0c5b6853bd333518df6f
     Pseudo is Ultrasoft, Zval =  4.0
     Generated by new atomic code, or converted to UPF format
     Using radial grid of  627 points,  4 beta functions with: 
                l(1) =   0
                l(2) =   0
                l(3) =   1
                l(4) =   1
     Q(r) pseudized with 0 coefficients 


     PseudoPot. # 2 for O  read from file:
     /home/fnattino/Programs/qe-6.1/Environ/tests/../..//pseudo/O.pbe-rrkjus.UPF
     MD5 check sum: 390ba29e75625707450f3bd3f0eb6be9
     Pseudo is Ultrasoft, Zval =  6.0
     Generated by new atomic code, or converted to UPF format
     Using radial grid of 1269 points,  4 beta functions with: 
                l(1) =   0
                l(2) =   0
                l(3) =   1
                l(4) =   1
     Q(r) pseudized with 0 coefficients 


     PseudoPot. # 3 for Pt read from file:
     /home/fnattino/Programs/qe-6.1/Environ/tests/../..//pseudo/Pt.pbe-n-rrkjus_psl.0.1.UPF
     MD5 check sum: df5be8f5ed4f66d4aed38ca70ec8d507
     Pseudo is Ultrasoft + core correction, Zval = 10.0
     Generated using "atomic" code by A. Dal Corso  v.5.0.2 svn rev. 9415
     Using radial grid of 1277 points,  6 beta functions with: 
                l(1) =   0
                l(2) =   0
                l(3) =   1
                l(4) =   1
                l(5) =   2
                l(6) =   2
     Q(r) pseudized with 0 coefficients 


     atomic species   valence    mass     pseudopotential
        C              4.00     1.00000     C ( 1.00)
        O              6.00     1.00000     O ( 1.00)
        Pt            10.00     1.00000     Pt( 1.00)

     No symmetry found



   Cartesian axes

     site n.     atom                  positions (alat units)
         1           C   tau(   1) = (   0.4991611   0.4347567   1.2070461  )
         2           O   tau(   2) = (   0.4991542   0.4322212   1.4109013  )
         3           Pt  tau(   3) = (   0.7542339   0.0091745   0.8413229  )
         4           Pt  tau(   4) = (   0.2441023   0.0091745   0.8413226  )
         5           Pt  tau(   5) = (   0.0000034   0.4416918   0.8391348  )
         6           Pt  tau(   6) = (   0.4991682   0.4417635   0.8776299  )
         7           Pt  tau(   7) = (   0.0000038   0.7300598   0.4308181  )
         8           Pt  tau(   8) = (   0.4991683   0.7202168   0.4447460  )
         9           Pt  tau(   9) = (   0.2524172   0.2949237   0.4386572  )
        10           Pt  tau(  10) = (   0.7459196   0.2949237   0.4386575  )

     number of k points=     1  Marzari-Vanderbilt smearing, width (Ry)=  0.0300
                       cart. coord. in units 2pi/alat
        k(    1) = (   0.0000000   0.0000000   0.0000000), wk =   2.0000000

     Dense  grid:   183417 G-vectors     FFT dimensions: (  60,  54, 240)

     Smooth grid:    58483 G-vectors     FFT dimensions: (  45,  36, 160)

     Estimated max dynamical RAM per process >     231.32MB

     Initial potential from superposition of free atoms
     Check: negative starting charge=   -0.003086

     starting charge   89.99859, renormalised to   90.00000

     negative rho (up, down):  3.086E-03 0.000E+00
     Starting wfc are   80 randomized atomic wfcs

     total cpu time spent up to now is        5.7 secs

     per-process dynamical memory:   335.7 Mb

     Self-consistent Calculation

     iteration #  1     ecut=    35.00 Ry     beta=0.70
     Davidson diagonalization with overlap
     ethr =  1.00E-02,  avg # of iterations =  8.0

     negative rho (up, down):  2.238E-03 0.000E+00

     add environment contribution to local potential
     polarization accuracy = 7.6E-06, # of iterations =  21

     total cpu time spent up to now is        9.9 secs

     total energy              =    -623.07788607 Ry
     Harris-Foulkes estimate   =    -624.45760611 Ry
     estimated scf accuracy    <       1.80056586 Ry
     electrostatic embedding   =       0.00000000 Ry
     correction to one-el term =       0.00000000 Ry

     iteration #  2     ecut=    35.00 Ry     beta=0.70
     Davidson diagonalization with overlap
     ethr =  2.00E-03,  avg # of iterations =  6.0

     negative rho (up, down):  1.506E-02 0.000E+00

     add environment contribution to local potential
     polarization accuracy = 9.4E-06, # of iterations =  34

     total cpu time spent up to now is       14.9 secs

     total energy              =    -621.32490146 Ry
     Harris-Foulkes estimate   =    -657.02704701 Ry
     estimated scf accuracy    <      17.56863781 Ry
     electrostatic embedding   =      -0.02250379 Ry
     correction to one-el term =      30.87765881 Ry

     iteration #  3     ecut=    35.00 Ry     beta=0.70
     Davidson diagonalization with overlap
     ethr =  2.00E-03,  avg # of iterations =  6.0

     negative rho (up, down):  9.979E-03 0.000E+00

     add environment contribution to local potential
     polarization accuracy = 8.2E-06, # of iterations =  26

     total cpu time spent up to now is       19.3 secs

     total energy              =    -623.63274801 Ry
     Harris-Foulkes estimate   =    -652.79446962 Ry
     estimated scf accuracy    <       5.73553062 Ry
     electrostatic embedding   =      -0.01526033 Ry
     correction to one-el term =      28.30820349 Ry

     iteration #  4     ecut=    35.00 Ry     beta=0.70
     Davidson diagonalization with overlap
     ethr =  2.00E-03,  avg # of iterations =  1.0

     negative rho (up, down):  7.436E-03 0.000E+00

     add environment contribution to local potential
     polarization accuracy = 3.2E-06, # of iterations =  25

     total cpu time spent up to now is       23.3 secs

     total energy              =    -623.70453322 Ry
     Harris-Foulkes estimate   =    -652.28573240 Ry
     estimated scf accuracy    <       3.95285681 Ry
     electrostatic embedding   =      -0.03674772 Ry
     correction to one-el term =      27.97660714 Ry

     iteration #  5     ecut=    35.00 Ry     beta=0.70
     Davidson diagonalization with overlap
     ethr =  2.00E-03,  avg # of iterations =  1.0

     negative rho (up, down):  7.149E-03 0.000E+00

     add environment contribution to local potential
     polarization accuracy = 6.5E-06, # of iterations =  25

     total cpu time spent up to now is       27.3 secs

     total energy              =    -624.03556960 Ry
     Harris-Foulkes estimate   =    -652.27345279 Ry
     estimated scf accuracy    <       0.82536328 Ry
     electrostatic embedding   =      -0.01259716 Ry
     correction to one-el term =      28.06927081 Ry

     iteration #  6     ecut=    35.00 Ry     beta=0.70
     Davidson diagonalization with overlap
     ethr =  9.17E-04,  avg # of iterations =  1.0

     negative rho (up, down):  5.540E-03 0.000E+00

     add environment contribution to local potential
     polarization accuracy = 6.0E-06, # of iterations =  23

     total cpu time spent up to now is       31.1 secs

     total energy              =    -624.12596178 Ry
     Harris-Foulkes estimate   =    -651.55689302 Ry
     estimated scf accuracy    <       0.20918297 Ry
     electrostatic embedding   =      -0.01130600 Ry
     correction to one-el term =      27.41203694 Ry

     iteration #  7     ecut=    35.00 Ry     beta=0.70
     Davidson diagonalization with overlap
     ethr =  2.32E-04,  avg # of iterations =  6.0

     negative rho (up, down):  4.389E-03 0.000E+00

     add environment contribution to local potential
     polarization accuracy = 2.6E-06, # of iterations =  23

     total cpu time spent up to now is       35.1 secs

     total energy              =    -624.13170161 Ry
     Harris-Foulkes estimate   =    -651.54165355 Ry
     estimated scf accuracy    <       0.09364342 Ry
     electrostatic embedding   =      -0.01085476 Ry
     correction to one-el term =      27.40349465 Ry

     iteration #  8     ecut=    35.00 Ry     beta=0.70
     Davidson diagonalization with overlap
     ethr =  1.04E-04,  avg # of iterations =  1.0

     negative rho (up, down):  3.348E-03 0.000E+00

     add environment contribution to local potential
     polarization accuracy = 5.5E-06, # of iterations =  23

     total cpu time spent up to now is       39.0 secs

     total energy              =    -624.13534370 Ry
     Harris-Foulkes estimate   =    -651.41529665 Ry
     estimated scf accuracy    <       0.03354503 Ry
     electrostatic embedding   =      -0.01123575 Ry
     correction to one-el term =      27.28343076 Ry

     iteration #  9     ecut=    35.00 Ry     beta=0.70
     Davidson diagonalization with overlap
     ethr =  3.73E-05,  avg # of iterations =  1.0

     negative rho (up, down):  3.202E-03 0.000E+00

     add environment contribution to local potential
     polarization accuracy = 1.7E-06, # of iterations =  23

     total cpu time spent up to now is       42.8 secs

     total energy              =    -624.13853470 Ry
     Harris-Foulkes estimate   =    -651.31197053 Ry
     estimated scf accuracy    <       0.01553157 Ry
     electrostatic embedding   =      -0.01101517 Ry
     correction to one-el term =      27.18123313 Ry

     iteration # 10     ecut=    35.00 Ry     beta=0.70
     Davidson diagonalization with overlap
     ethr =  1.73E-05,  avg # of iterations =  4.0

     negative rho (up, down):  3.105E-03 0.000E+00

     add environment contribution to local potential
     polarization accuracy = 1.8E-06, # of iterations =  23

     total cpu time spent up to now is       46.7 secs

     total energy              =    -624.13924649 Ry
     Harris-Foulkes estimate   =    -651.05295585 Ry
     estimated scf accuracy    <       0.00830047 Ry
     electrostatic embedding   =      -0.01069740 Ry
     correction to one-el term =      26.92286642 Ry

     iteration # 11     ecut=    35.00 Ry     beta=0.70
     Davidson diagonalization with overlap
     ethr =  9.22E-06,  avg # of iterations =  1.0

     negative rho (up, down):  3.101E-03 0.000E+00

     add environment contribution to local potential
     polarization accuracy = 2.1E-06, # of iterations =  23

     total cpu time spent up to now is       50.6 secs

     total energy              =    -624.13954664 Ry
     Harris-Foulkes estimate   =    -651.11543901 Ry
     estimated scf accuracy    <       0.00521790 Ry
     electrostatic embedding   =      -0.01046853 Ry
     correction to one-el term =      26.98516853 Ry

     iteration # 12     ecut=    35.00 Ry     beta=0.70
     Davidson diagonalization with overlap
     ethr =  5.80E-06,  avg # of iterations =  1.0

     negative rho (up, down):  3.074E-03 0.000E+00

     total cpu time spent up to now is       52.6 secs

     End of self-consistent calculation

          k = 0.0000 0.0000 0.0000 (  7286 PWs)   bands (ev):

   -28.9154 -15.1207 -13.3592 -12.4877 -11.8381 -11.7457 -11.7084 -11.1342
   -10.9713 -10.1342  -9.9910  -9.8942  -9.6403  -9.6089  -9.5300  -9.3761
    -8.7369  -8.6857  -8.6515  -8.4610  -8.3758  -8.3208  -8.2664  -8.2366
    -8.2244  -8.0633  -8.0123  -7.9340  -7.8401  -7.5768  -7.4750  -6.7378
    -6.5962  -6.4787  -6.1611  -6.0710  -6.0278  -5.8646  -5.7327  -5.5582
    -5.3897  -5.3514  -5.1594  -5.1442  -5.0949  -5.0886  -4.9047  -3.8168
    -3.4359  -3.3550  -2.9047  -2.3195  -2.1500  -1.1888  -0.8543  -0.7943
    -0.3373  -0.0579   0.5858   0.5994   0.9102   1.2734   2.1855   2.4039
     2.4341   2.7615   3.0205   3.2925   3.5287   3.5774   4.0394   4.2170
     4.4823   4.6101   4.9398   5.1158   5.3125   5.3722   5.4498   5.5958

     the Fermi energy is    -4.9914 ev

!    total energy              =    -624.13608769 Ry
     Harris-Foulkes estimate   =    -651.08492033 Ry
     estimated scf accuracy    <       0.00463822 Ry

     The total energy is the sum of the following terms:

     one-electron contribution =   -3994.31594082 Ry
     hartree contribution      =    2033.30315588 Ry
     xc contribution           =    -263.26706512 Ry
     ewald contribution        =    1573.20467954 Ry
     smearing contrib. (-TS)   =      -0.00532860 Ry
     electrostatic embedding   =      -0.01021194 Ry
     correction to one-el term =      26.95462337 Ry

     the Fermi energy shift due to the parabolic pbc-correction is    -0.4600 ev

     convergence has been achieved in  12 iterations

     negative rho (up, down):  3.074E-03 0.000E+00

     Forces acting on atoms (cartesian axes, Ry/au):

     atom    1 type  1   force =     0.00006593   -0.00636007    0.04891605
     atom    2 type  2   force =    -0.00016585    0.00169262    0.01377080
     atom    3 type  3   force =     0.00208597    0.00990578    0.04086760
     atom    4 type  3   force =    -0.00109775    0.01016328    0.04120898
     atom    5 type  3   force =    -0.00146282    0.01598078   -0.00094802
     atom    6 type  3   force =     0.00050509    0.00948878    0.05468650
     atom    7 type  3   force =    -0.00139866   -0.01226387   -0.05564233
     atom    8 type  3   force =     0.00027387   -0.01066472   -0.04283915
     atom    9 type  3   force =     0.00982402   -0.00918576   -0.05014335
     atom   10 type  3   force =    -0.00862980   -0.00875682   -0.04987708

     Total force =     0.141676     Total SCF correction =     0.310175
     SCF correction compared to forces is large: reduce conv_thr to get better values

     Writing output data file pwscf.save
 
     init_run     :      5.32s CPU      5.45s WALL (       1 calls)
     electrons    :     45.05s CPU     46.92s WALL (       1 calls)
     forces       :      3.32s CPU      3.39s WALL (       1 calls)

     Called by init_run:
     wfcinit      :      0.20s CPU      0.21s WALL (       1 calls)
     potinit      :      1.50s CPU      1.52s WALL (       1 calls)

     Called by electrons:
     c_bands      :      6.98s CPU      7.10s WALL (      12 calls)
     sum_band     :      7.55s CPU      8.20s WALL (      12 calls)
     v_of_rho     :      3.35s CPU      3.45s WALL (      13 calls)
     newd         :      4.79s CPU      5.59s WALL (      13 calls)
     mix_rho      :      0.29s CPU      0.29s WALL (      12 calls)

     Called by c_bands:
     init_us_2    :      0.12s CPU      0.12s WALL (      25 calls)
     regterg      :      6.22s CPU      6.33s WALL (      12 calls)

     Called by sum_band:
     sum_band:bec :      0.00s CPU      0.00s WALL (      12 calls)
     addusdens    :      6.12s CPU      6.74s WALL (      12 calls)

     Called by *egterg:
     h_psi        :      4.44s CPU      4.47s WALL (      50 calls)
     s_psi        :      0.30s CPU      0.31s WALL (      50 calls)
     g_psi        :      0.06s CPU      0.06s WALL (      37 calls)
     rdiaghg      :      0.36s CPU      0.36s WALL (      49 calls)

     Called by h_psi:
     h_psi:pot    :      4.41s CPU      4.42s WALL (      50 calls)
     h_psi:calbec :      0.30s CPU      0.30s WALL (      50 calls)
     vloc_psi     :      3.80s CPU      3.82s WALL (      50 calls)
     add_vuspsi   :      0.31s CPU      0.30s WALL (      50 calls)

     General routines
     calbec       :      0.45s CPU      0.45s WALL (      66 calls)
     fft          :      6.56s CPU      6.76s WALL (     966 calls)
     ffts         :      0.04s CPU      0.05s WALL (      25 calls)
     fftw         :      3.50s CPU      3.54s WALL (    2810 calls)
     interpolate  :      0.27s CPU      0.30s WALL (      25 calls)
     davcio       :      0.00s CPU      0.00s WALL (       1 calls)
 
     Parallel routines
     fft_scatter  :      1.78s CPU      1.92s WALL (    3801 calls)
 
     Environ routines
     calc_eelect  :      0.00s CPU      0.01s WALL (      24 calls)
     calc_velect  :     19.05s CPU     19.12s WALL (      22 calls)
     dielectric   :      0.30s CPU      0.29s WALL (      15 calls)
     calc_felect  :      0.07s CPU      0.07s WALL (       1 calls)
 
     PWSCF        :    54.02s CPU        56.11s WALL

 
   This run was terminated on:  12:33: 9   1Feb2018            

=------------------------------------------------------------------------------=
   JOB DONE.
=------------------------------------------------------------------------------=

%%%% IONS %%%%%%%%%%%%%%%%%%%%%%%%%%%%%%%%%%%%%%%%%%%%%%%%%%%%%%%%%%%%%%%%%%%%%%
 number of ions             =         10
 ionic center of charge     =      0.3882415     0.3750182     0.7201831
 total ionic charge         =    -90.0000000
 ionic dipole               =      0.0000000     0.0000000     0.0000000
 ionic quadrupole (pc)      =   -730.5101255  -614.6110457  -876.7220256
 ionic quadrupole (gauss)   =   -741.7601255  -625.8610457  -887.9720256
 ion   1 type =  1 coordinates =      5.3350841     4.6467234    12.9010299
 ion   2 type =  2 coordinates =      5.3350096     4.6196233    15.0798543
 ion   3 type =  3 coordinates =      8.0613271     0.0980580     8.9921429
 ion   4 type =  3 coordinates =      2.6089894     0.0980583     8.9921406
 ion   5 type =  3 coordinates =      0.0000366     4.7208463     8.9687569
 ion   6 type =  3 coordinates =      5.3351596     4.7216127     9.3801964
 ion   7 type =  3 coordinates =      0.0000411     7.8029520     4.6046265
 ion   8 type =  3 coordinates =      5.3351612     7.6977491     4.7534894
 ion   9 type =  3 coordinates =      2.6978606     3.1521739     4.6884123
 ion  10 type =  3 coordinates =      7.9724637     3.1521745     4.6884152

%%%% SYSTEM %%%%%%%%%%%%%%%%%%%%%%%%%%%%%%%%%%%%%%%%%%%%%%%%%%%%%%%%%%%%%%%%%%%%
 system is built from all present ionic types
 system defined dimension   =  0 
 system defined axis        =  3 
 system center              =      0.3882415     0.3750182     0.7201831 
 system width               =      0.7019013 

%%%% ELECTRONS %%%%%%%%%%%%%%%%%%%%%%%%%%%%%%%%%%%%%%%%%%%%%%%%%%%%%%%%%%%%%%%%%
 number of electrons        =         89
 total electronic charge    =     90.0000000
 number of spin components  =  1

%%%% BOUNDARY %%%%%%%%%%%%%%%%%%%%%%%%%%%%%%%%%%%%%%%%%%%%%%%%%%%%%%%%%%%%%%%%%%
 boundary mode              = full                 
 boundary is built as a function of a smooth density
 function type              =  2 
 using the modified SCCS function with parameters 
 rhomax                     =      0.0050000 
 rhomin                     =      0.0001000 
 volume of the QM region    =   1612.5057880 
 surface of the QM region   =    255.1041428 

%%%% DIELECTRIC %%%%%%%%%%%%%%%%%%%%%%%%%%%%%%%%%%%%%%%%%%%%%%%%%%%%%%%%%%%%%%%%%
 dielectric build on homogeneous background
 environment bulk permitt.  =    100.0000000 
 dielectric flags
 need gradient              =  F 
 need factor depend. sqrt   =  T 
 total dielectric charge    =      0.0000000

%%%% ELECTRONS %%%%%%%%%%%%%%%%%%%%%%%%%%%%%%%%%%%%%%%%%%%%%%%%%%%%%%%%%%%%%%%%%
 number of electrons        =         89
 total electronic charge    =     90.0000000
 number of spin components  =  1

%%%% BOUNDARY %%%%%%%%%%%%%%%%%%%%%%%%%%%%%%%%%%%%%%%%%%%%%%%%%%%%%%%%%%%%%%%%%%
 boundary mode              = full                 
 boundary is built as a function of a smooth density
 function type              =  2 
 using the modified SCCS function with parameters 
 rhomax                     =      0.0050000 
 rhomin                     =      0.0001000 
 volume of the QM region    =   1646.7575091 
 surface of the QM region   =    250.7132398 

%%%% DIELECTRIC %%%%%%%%%%%%%%%%%%%%%%%%%%%%%%%%%%%%%%%%%%%%%%%%%%%%%%%%%%%%%%%%%
 dielectric build on homogeneous background
 environment bulk permitt.  =    100.0000000 
 dielectric flags
 need gradient              =  F 
 need factor depend. sqrt   =  T 
 total dielectric charge    =      0.0000000

%%%% COMPUTE ELECTROSTATIC POTENTIAL %%%%%%%%%%%%%%%%%%%%%%%%%%%%%%%%%%%%%%%%%%%
 Iteration #          1
  pAp =    1284.13180084751       rzold =    1283.80134598922       alpha = 
  0.999742662818511     
 delta_qm =   0.228452E-01 delta_en =   0.405834E+03 tol =   0.100000E-04
 Iteration #          2
  pAp =    29.4380780406651       rzold =    2.19410317093611       alpha = 
  7.453282676624577E-002
 delta_qm =   0.250312E-01 delta_en =   0.487215E+03 tol =   0.100000E-04
 Iteration #          3
  pAp =    19.0739276209416       rzold =    1.42878243173546       alpha = 
  7.490761526046558E-002
 delta_qm =   0.132759E-01 delta_en =   0.137052E+03 tol =   0.100000E-04
 Iteration #          4
  pAp =   3.922320597288041E-002  rzold =   3.199435387867515E-002  alpha = 
  0.815699611622685     
 delta_qm =   0.183107E-01 delta_en =   0.260715E+03 tol =   0.100000E-04
 Iteration #          5
  pAp =   0.221719833665972       rzold =   6.596926297657542E-002  alpha = 
  0.297534333694117     
 delta_qm =   0.132456E-01 delta_en =   0.136426E+03 tol =   0.100000E-04
 Iteration #          6
  pAp =  -0.865046531909690       rzold =  -0.203927311358874       alpha = 
  0.235741435675929     
 delta_qm =   0.285875E-02 delta_en =   0.635491E+01 tol =   0.100000E-04
 Iteration #          7
  pAp =   1.785414372779568E-002  rzold =   7.613748618866621E-003  alpha = 
  0.426441544044108     
 delta_qm =   0.733856E-03 delta_en =   0.418773E+00 tol =   0.100000E-04
 Iteration #          8
  pAp =   1.463424716287260E-003  rzold =   5.895307649269206E-004  alpha = 
  0.402843247326431     
 delta_qm =   0.353341E-03 delta_en =   0.970833E-01 tol =   0.100000E-04
 Iteration #          9
  pAp =   2.948182538297673E-004  rzold =   1.035810618232678E-004  alpha = 
  0.351338699275646     
 delta_qm =   0.299356E-03 delta_en =   0.696837E-01 tol =   0.100000E-04
 Iteration #         10
  pAp =   3.953639644156690E-005  rzold =   1.908195023457376E-005  alpha = 
  0.482642626845774     
 delta_qm =   0.263146E-03 delta_en =   0.538454E-01 tol =   0.100000E-04
 Iteration #         11
  pAp =   1.433382422189907E-005  rzold =   1.084726934970937E-005  alpha = 
  0.756760316143477     
 delta_qm =   0.225910E-03 delta_en =   0.396852E-01 tol =   0.100000E-04
 Iteration #         12
  pAp =   8.090000746115030E-006  rzold =   1.193549922340936E-005  alpha = 
   1.47533969377457     
 delta_qm =   0.276364E-03 delta_en =   0.593909E-01 tol =   0.100000E-04
 Iteration #         13
  pAp =   3.063141336346956E-005  rzold =   1.749677894651274E-005  alpha = 
  0.571203774990646     
 delta_qm =   0.336271E-03 delta_en =   0.879298E-01 tol =   0.100000E-04
 Iteration #         14
  pAp =   4.864425876557796E-004  rzold =   3.576359729336654E-005  alpha = 
  7.352069535217971E-002
 delta_qm =   0.294228E-03 delta_en =   0.673171E-01 tol =   0.100000E-04
 Iteration #         15
  pAp =   9.559297351376350E-005  rzold =   3.273655421255476E-005  alpha = 
  0.342457745681918     
 delta_qm =   0.283623E-03 delta_en =   0.625519E-01 tol =   0.100000E-04
 Iteration #         16
  pAp =   1.430324333407862E-005  rzold =   1.527522081829541E-005  alpha = 
   1.06795504079141     
 delta_qm =   0.189753E-03 delta_en =   0.279985E-01 tol =   0.100000E-04
 Iteration #         17
  pAp =   1.599103457974516E-005  rzold =   1.572369828569978E-005  alpha = 
  0.983282113942521     
 delta_qm =   0.980098E-04 delta_en =   0.746957E-02 tol =   0.100000E-04
 Iteration #         18
  pAp =   7.570180998790683E-006  rzold =   4.703722830193460E-006  alpha = 
  0.621348793502410     
 delta_qm =   0.427466E-04 delta_en =   0.142089E-02 tol =   0.100000E-04
 Iteration #         19
  pAp =   6.177547541539712E-007  rzold =   3.833231830940080E-007  alpha = 
  0.620510292339195     
 delta_qm =   0.187588E-04 delta_en =   0.273633E-03 tol =   0.100000E-04
 Iteration #         20
  pAp =   8.196236891597931E-008  rzold =   4.799529754794119E-008  alpha = 
  0.585577237245812     
 delta_qm =   0.905244E-05 delta_en =   0.637218E-04 tol =   0.100000E-04
 Iteration #         21
  pAp =   1.957838998155434E-008  rzold =   1.388910208743640E-008  alpha = 
  0.709409818709400     
 delta_qm =   0.311753E-05 delta_en =   0.755747E-05 tol =   0.100000E-04
 Charges are converged, EXIT

%%%% ELECTRONS %%%%%%%%%%%%%%%%%%%%%%%%%%%%%%%%%%%%%%%%%%%%%%%%%%%%%%%%%%%%%%%%%
 number of electrons        =         89
 total electronic charge    =     90.0000000
 number of spin components  =  1

%%%% BOUNDARY %%%%%%%%%%%%%%%%%%%%%%%%%%%%%%%%%%%%%%%%%%%%%%%%%%%%%%%%%%%%%%%%%%
 boundary mode              = full                 
 boundary is built as a function of a smooth density
 function type              =  2 
 using the modified SCCS function with parameters 
 rhomax                     =      0.0050000 
 rhomin                     =      0.0001000 
 volume of the QM region    =   1628.1523182 
 surface of the QM region   =    336.5338143 

%%%% DIELECTRIC %%%%%%%%%%%%%%%%%%%%%%%%%%%%%%%%%%%%%%%%%%%%%%%%%%%%%%%%%%%%%%%%%
 dielectric build on homogeneous background
 environment bulk permitt.  =    100.0000000 
 dielectric flags
 need gradient              =  F 
 need factor depend. sqrt   =  T 
 total dielectric charge    =     -0.0014521

%%%% COMPUTE ELECTROSTATIC POTENTIAL %%%%%%%%%%%%%%%%%%%%%%%%%%%%%%%%%%%%%%%%%%%
 Warning: bad guess with residual norm =   0.200212E+05, reset to no guess
 Iteration #          1
  pAp =    1277.02947711344       rzold =    1275.87283567472       alpha = 
  0.999094271933853     
 delta_qm =   0.160315E+00 delta_en =   0.199851E+05 tol =   0.100000E-04
 Iteration #          2
  pAp =    1617.87585505932       rzold =    41.9779580760598       alpha = 
  2.594634065697248E-002
 delta_qm =   0.375669E-01 delta_en =   0.109741E+04 tol =   0.100000E-04
 Iteration #          3
  pAp =   0.768364837832862       rzold =  -1.181102642388168E-002  alpha = 
 -1.537163837063933E-002
 delta_qm =   0.354981E-01 delta_en =   0.979866E+03 tol =   0.100000E-04
 Iteration #          4
  pAp =   5.864690837849547E-003  rzold =   1.210499267737493E-002  alpha = 
   2.06404617260499     
 delta_qm =   0.892729E-02 delta_en =   0.619720E+02 tol =   0.100000E-04
 Iteration #          5
  pAp =   8.742305965766423E-002  rzold =   2.388040874859139E-002  alpha = 
  0.273159150939163     
 delta_qm =   0.285066E-02 delta_en =   0.631899E+01 tol =   0.100000E-04
 Iteration #          6
  pAp =   4.485651988855761E-003  rzold =   2.103510747952646E-003  alpha = 
  0.468942029648900     
 delta_qm =   0.639978E-02 delta_en =   0.318483E+02 tol =   0.100000E-04
 Iteration #          7
  pAp =  -2.144947869161010E-004  rzold =   1.156093755343903E-003  alpha = 
  -5.38984546881368     
 delta_qm =   0.505898E-01 delta_en =   0.199013E+04 tol =   0.100000E-04
 Iteration #          8
  pAp =    1.79162084912974       rzold =   9.961939821588220E-002  alpha = 
  5.560294649633674E-002
 delta_qm =   0.169488E-02 delta_en =   0.223374E+01 tol =   0.100000E-04
 Iteration #          9
  pAp =   1.391074249142489E-003  rzold =   4.516574831380886E-004  alpha = 
  0.324682513112803     
 delta_qm =   0.151333E-02 delta_en =   0.178084E+01 tol =   0.100000E-04
 Iteration #         10
  pAp =   1.731875319063412E-004  rzold =   9.814124419626364E-005  alpha = 
  0.566676152237898     
 delta_qm =   0.155406E-02 delta_en =   0.187799E+01 tol =   0.100000E-04
 Iteration #         11
  pAp =   9.291548394665167E-005  rzold =   1.088404183371724E-004  alpha = 
   1.17139161003202     
 delta_qm =   0.175648E-02 delta_en =   0.239908E+01 tol =   0.100000E-04
 Iteration #         12
  pAp =   8.174666434096680E-005  rzold =   2.477323108771090E-004  alpha = 
   3.03048831257277     
 delta_qm =   0.422667E-02 delta_en =   0.138916E+02 tol =   0.100000E-04
 Iteration #         13
  pAp =   9.687927989776449E-002  rzold =   4.400978188636821E-003  alpha = 
  4.542744530389903E-002
 delta_qm =   0.431789E-02 delta_en =   0.144977E+02 tol =   0.100000E-04
 Iteration #         14
  pAp =   2.109005942233185E-003  rzold =   2.454376418407823E-003  alpha = 
   1.16375984024442     
 delta_qm =   0.106793E-01 delta_en =   0.886829E+02 tol =   0.100000E-04
 Iteration #         15
  pAp =   7.236868008100941E-003  rzold =   9.681723880979024E-003  alpha = 
   1.33783342049922     
 delta_qm =   0.367833E-01 delta_en =   0.105210E+04 tol =   0.100000E-04
 Iteration #         16
  pAp =  -0.104150630696302       rzold =   5.467160235801601E-002  alpha = 
 -0.524928192873223     
 delta_qm =   0.169581E-01 delta_en =   0.223620E+03 tol =   0.100000E-04
 Iteration #         17
  pAp =   4.368861530838292E-002  rzold =   1.747252589652304E-002  alpha = 
  0.399933158173828     
 delta_qm =   0.415627E-02 delta_en =   0.134327E+02 tol =   0.100000E-04
 Iteration #         18
  pAp =   3.311764558280509E-003  rzold =   1.731928152510160E-003  alpha = 
  0.522962342893538     
 delta_qm =   0.224886E-02 delta_en =   0.393261E+01 tol =   0.100000E-04
 Iteration #         19
  pAp =   6.282990249444455E-004  rzold =   3.045677266585436E-004  alpha = 
  0.484749640802759     
 delta_qm =   0.150538E-02 delta_en =   0.176217E+01 tol =   0.100000E-04
 Iteration #         20
  pAp =   1.736523203253783E-004  rzold =   1.100285155595891E-004  alpha = 
  0.633613851824294     
 delta_qm =   0.113308E-02 delta_en =   0.998343E+00 tol =   0.100000E-04
 Iteration #         21
  pAp =   2.297864753395184E-004  rzold =  -2.040969708092392E-006  alpha = 
 -8.882027130085788E-003
 delta_qm =   0.111654E-02 delta_en =   0.969403E+00 tol =   0.100000E-04
 Iteration #         22
  pAp =   1.068936620336525E-007  rzold =   1.993490478192825E-006  alpha = 
   18.6492860312450     
 delta_qm =   0.692028E-03 delta_en =   0.372395E+00 tol =   0.100000E-04
 Iteration #         23
  pAp =   7.607187067662469E-005  rzold =   2.628131592227926E-005  alpha = 
  0.345480079410680     
 delta_qm =   0.489128E-03 delta_en =   0.186038E+00 tol =   0.100000E-04
 Iteration #         24
  pAp =   3.021383731191787E-003  rzold =   1.577636962989213E-004  alpha = 
  5.221570986505952E-002
 delta_qm =   0.358328E-03 delta_en =   0.998433E-01 tol =   0.100000E-04
 Iteration #         25
  pAp =   2.089199674357877E-005  rzold =   9.341885360599663E-006  alpha = 
  0.447151388891104     
 delta_qm =   0.301323E-03 delta_en =   0.706024E-01 tol =   0.100000E-04
 Iteration #         26
  pAp =   3.108084074170111E-005  rzold =   7.461297366854296E-006  alpha = 
  0.240060988982305     
 delta_qm =   0.221085E-03 delta_en =   0.380079E-01 tol =   0.100000E-04
 Iteration #         27
  pAp =   2.791184344041532E-006  rzold =   2.046141060128736E-006  alpha = 
  0.733072706034887     
 delta_qm =   0.944685E-04 delta_en =   0.693954E-02 tol =   0.100000E-04
 Iteration #         28
  pAp =   1.041850958224812E-006  rzold =   6.629206281274186E-007  alpha = 
  0.636291230424125     
 delta_qm =   0.488908E-04 delta_en =   0.185871E-02 tol =   0.100000E-04
 Iteration #         29
  pAp =   2.347634072623042E-007  rzold =   1.516612915656178E-007  alpha = 
  0.646017594199273     
 delta_qm =   0.280382E-04 delta_en =   0.611304E-03 tol =   0.100000E-04
 Iteration #         30
  pAp =   7.972954813018710E-008  rzold =   5.070963347901585E-008  alpha = 
  0.636020580427901     
 delta_qm =   0.189387E-04 delta_en =   0.278906E-03 tol =   0.100000E-04
 Iteration #         31
  pAp =   2.038948982067467E-008  rzold =   1.550420364993887E-008  alpha = 
  0.760401745521745     
 delta_qm =   0.917905E-05 delta_en =   0.655166E-04 tol =   0.100000E-04
 Iteration #         32
  pAp =   7.803844064818081E-009  rzold =   4.370627816830912E-009  alpha = 
  0.560060885446818     
 delta_qm =   0.506863E-05 delta_en =   0.199773E-04 tol =   0.100000E-04
 Iteration #         33
  pAp =   1.115195720438579E-008  rzold =   2.185260415291028E-009  alpha = 
  0.195953084758218     
 delta_qm =   0.467663E-05 delta_en =   0.170068E-04 tol =   0.100000E-04
 Iteration #         34
  pAp =   1.191932165917622E-007  rzold =   9.613215491781763E-009  alpha = 
  8.065237071927599E-002
 delta_qm =   0.346811E-05 delta_en =   0.935280E-05 tol =   0.100000E-04
 Charges are converged, EXIT

%%%% ELECTRONS %%%%%%%%%%%%%%%%%%%%%%%%%%%%%%%%%%%%%%%%%%%%%%%%%%%%%%%%%%%%%%%%%
 number of electrons        =         89
 total electronic charge    =     90.0000000
 number of spin components  =  1

%%%% BOUNDARY %%%%%%%%%%%%%%%%%%%%%%%%%%%%%%%%%%%%%%%%%%%%%%%%%%%%%%%%%%%%%%%%%%
 boundary mode              = full                 
 boundary is built as a function of a smooth density
 function type              =  2 
 using the modified SCCS function with parameters 
 rhomax                     =      0.0050000 
 rhomin                     =      0.0001000 
 volume of the QM region    =   1624.9051797 
 surface of the QM region   =    295.1877519 

%%%% DIELECTRIC %%%%%%%%%%%%%%%%%%%%%%%%%%%%%%%%%%%%%%%%%%%%%%%%%%%%%%%%%%%%%%%%%
 dielectric build on homogeneous background
 environment bulk permitt.  =    100.0000000 
 dielectric flags
 need gradient              =  F 
 need factor depend. sqrt   =  T 
 total dielectric charge    =      0.0045079

%%%% COMPUTE ELECTROSTATIC POTENTIAL %%%%%%%%%%%%%%%%%%%%%%%%%%%%%%%%%%%%%%%%%%%
 Warning: bad guess with residual norm =   0.343068E+05, reset to no guess
 Iteration #          1
  pAp =    1278.57244002001       rzold =    1274.71342184775       alpha = 
  0.996981775884207     
 delta_qm =   0.209413E+00 delta_en =   0.341007E+05 tol =   0.100000E-04
 Iteration #          2
  pAp =    4093.57890601798       rzold =    122.756010753764       alpha = 
  2.998745439431989E-002
 delta_qm =   0.161476E-01 delta_en =   0.202756E+03 tol =   0.100000E-04
 Iteration #          3
  pAp =    1.79289251048149       rzold =   0.259820399557488       alpha = 
  0.144916886003229     
 delta_qm =   0.123671E-01 delta_en =   0.118929E+03 tol =   0.100000E-04
 Iteration #          4
  pAp =   9.168305225934382E-003  rzold =   8.591928979462152E-003  alpha = 
  0.937133828742761     
 delta_qm =   0.235001E-01 delta_en =   0.429433E+03 tol =   0.100000E-04
 Iteration #          5
  pAp =  -0.115976868591130       rzold =   3.590953608514268E-002  alpha = 
 -0.309626708509777     
 delta_qm =   0.570856E-02 delta_en =   0.253401E+02 tol =   0.100000E-04
 Iteration #          6
  pAp =   5.156524334948377E-002  rzold =  -6.682231546287102E-003  alpha = 
 -0.129587898984559     
 delta_qm =   0.327125E-02 delta_en =   0.832116E+01 tol =   0.100000E-04
 Iteration #          7
  pAp =   8.573092314860430E-003  rzold =   4.963139407749287E-003  alpha = 
  0.578920560454747     
 delta_qm =   0.179314E-02 delta_en =   0.250025E+01 tol =   0.100000E-04
 Iteration #          8
  pAp =   1.990518736742137E-003  rzold =   1.033578312706556E-003  alpha = 
  0.519250732800538     
 delta_qm =   0.252851E-02 delta_en =   0.497148E+01 tol =   0.100000E-04
 Iteration #          9
  pAp =   6.846106500557684E-004  rzold =   4.032564208915083E-004  alpha = 
  0.589030306289654     
 delta_qm =   0.285624E-02 delta_en =   0.634373E+01 tol =   0.100000E-04
 Iteration #         10
  pAp =   3.001774273628641E-004  rzold =   5.577470492519117E-004  alpha = 
   1.85805792977794     
 delta_qm =   0.286500E-02 delta_en =   0.638271E+01 tol =   0.100000E-04
 Iteration #         11
  pAp =   8.758986833549646E-004  rzold =   1.955019006655745E-003  alpha = 
   2.23201500790869     
 delta_qm =   0.387900E-02 delta_en =   0.117003E+02 tol =   0.100000E-04
 Iteration #         12
  pAp =   1.347928031735147E-002  rzold =   5.185428405656471E-003  alpha = 
  0.384696236265776     
 delta_qm =   0.390334E-02 delta_en =   0.118476E+02 tol =   0.100000E-04
 Iteration #         13
  pAp =   0.432370574457588       rzold =   2.137523868998251E-002  alpha = 
  4.943731130824041E-002
 delta_qm =   0.384114E-02 delta_en =   0.114730E+02 tol =   0.100000E-04
 Iteration #         14
  pAp =   6.202368982323861E-003  rzold =   2.474487158912444E-003  alpha = 
  0.398958392505265     
 delta_qm =   0.293686E-02 delta_en =   0.670689E+01 tol =   0.100000E-04
 Iteration #         15
  pAp =   2.407963954008060E-003  rzold =   9.405091182234603E-004  alpha = 
  0.390582723075228     
 delta_qm =   0.226380E-02 delta_en =   0.398505E+01 tol =   0.100000E-04
 Iteration #         16
  pAp =   3.223222168715435E-004  rzold =   3.044520424784003E-004  alpha = 
  0.944558043294096     
 delta_qm =   0.119662E-02 delta_en =   0.111344E+01 tol =   0.100000E-04
 Iteration #         17
  pAp =   3.084578428259296E-004  rzold =   2.093253293346020E-004  alpha = 
  0.678618923794813     
 delta_qm =   0.697644E-03 delta_en =   0.378463E+00 tol =   0.100000E-04
 Iteration #         18
  pAp =   1.452137204738177E-004  rzold =   8.423026914456934E-005  alpha = 
  0.580043461938269     
 delta_qm =   0.366452E-03 delta_en =   0.104422E+00 tol =   0.100000E-04
 Iteration #         19
  pAp =   1.953980110670549E-005  rzold =   1.070746435085263E-005  alpha = 
  0.547982258999461     
 delta_qm =   0.193333E-03 delta_en =   0.290649E-01 tol =   0.100000E-04
 Iteration #         20
  pAp =   3.431480554761830E-006  rzold =   2.485816162877269E-006  alpha = 
  0.724415051522798     
 delta_qm =   0.113941E-03 delta_en =   0.100952E-01 tol =   0.100000E-04
 Iteration #         21
  pAp =   8.507428222365261E-007  rzold =   7.749109246340678E-007  alpha = 
  0.910863899617627     
 delta_qm =   0.459186E-04 delta_en =   0.163958E-02 tol =   0.100000E-04
 Iteration #         22
  pAp =   3.395073587571340E-007  rzold =   1.991668542987659E-007  alpha = 
  0.586634867143600     
 delta_qm =   0.287638E-04 delta_en =   0.643350E-03 tol =   0.100000E-04
 Iteration #         23
  pAp =   7.823539211562046E-006  rzold =   2.997731791560848E-007  alpha = 
  3.831682452783824E-002
 delta_qm =   0.261843E-04 delta_en =   0.533136E-03 tol =   0.100000E-04
 Iteration #         24
  pAp =   1.143939963184620E-007  rzold =   5.544316757272661E-008  alpha = 
  0.484668508462438     
 delta_qm =   0.150382E-04 delta_en =   0.175853E-03 tol =   0.100000E-04
 Iteration #         25
  pAp =   1.733361317469366E-008  rzold =   1.231403356516885E-008  alpha = 
  0.710413543965941     
 delta_qm =   0.568429E-05 delta_en =   0.251252E-04 tol =   0.100000E-04
 Iteration #         26
  pAp =   4.417881345375681E-009  rzold =   2.911486160036180E-009  alpha = 
  0.659023167990628     
 delta_qm =   0.325495E-05 delta_en =   0.823843E-05 tol =   0.100000E-04
 Charges are converged, EXIT

%%%% ELECTRONS %%%%%%%%%%%%%%%%%%%%%%%%%%%%%%%%%%%%%%%%%%%%%%%%%%%%%%%%%%%%%%%%%
 number of electrons        =         89
 total electronic charge    =     90.0000000
 number of spin components  =  1

%%%% BOUNDARY %%%%%%%%%%%%%%%%%%%%%%%%%%%%%%%%%%%%%%%%%%%%%%%%%%%%%%%%%%%%%%%%%%
 boundary mode              = full                 
 boundary is built as a function of a smooth density
 function type              =  2 
 using the modified SCCS function with parameters 
 rhomax                     =      0.0050000 
 rhomin                     =      0.0001000 
 volume of the QM region    =   1616.5223946 
 surface of the QM region   =    275.9256599 

%%%% DIELECTRIC %%%%%%%%%%%%%%%%%%%%%%%%%%%%%%%%%%%%%%%%%%%%%%%%%%%%%%%%%%%%%%%%%
 dielectric build on homogeneous background
 environment bulk permitt.  =    100.0000000 
 dielectric flags
 need gradient              =  F 
 need factor depend. sqrt   =  T 
 total dielectric charge    =      0.0005348

%%%% COMPUTE ELECTROSTATIC POTENTIAL %%%%%%%%%%%%%%%%%%%%%%%%%%%%%%%%%%%%%%%%%%%
 Warning: bad guess with residual norm =   0.681599E+04, reset to no guess
 Iteration #          1
  pAp =    1273.36524650663       rzold =    1272.38287951409       alpha = 
  0.999228526932678     
 delta_qm =   0.935519E-01 delta_en =   0.680552E+04 tol =   0.100000E-04
 Iteration #          2
  pAp =    919.477636399996       rzold =    28.9934235514030       alpha = 
  3.153249454214035E-002
 delta_qm =   0.170088E-01 delta_en =   0.224960E+03 tol =   0.100000E-04
 Iteration #          3
  pAp =    1.25554273622494       rzold =   0.187650604451682       alpha = 
  0.149457759610711     
 delta_qm =   0.172392E-01 delta_en =   0.231096E+03 tol =   0.100000E-04
 Iteration #          4
  pAp =  -1.437854129331635E-002  rzold =   1.401426629674495E-002  alpha = 
 -0.974665371880197     
 delta_qm =   0.971026E-02 delta_en =   0.733192E+02 tol =   0.100000E-04
 Iteration #          5
  pAp =   0.344560748960533       rzold =   3.608526439840672E-002  alpha = 
  0.104728308454368     
 delta_qm =   0.910209E-02 delta_en =   0.644226E+02 tol =   0.100000E-04
 Iteration #          6
  pAp =   2.880281027213585E-002  rzold =  -1.577492860110657E-002  alpha = 
 -0.547687133722761     
 delta_qm =   0.223483E-02 delta_en =   0.388371E+01 tol =   0.100000E-04
 Iteration #          7
  pAp =   1.157989790676462E-002  rzold =   3.970856249423910E-003  alpha = 
  0.342909435074057     
 delta_qm =   0.118993E-02 delta_en =   0.110102E+01 tol =   0.100000E-04
 Iteration #          8
  pAp =   9.613475417060455E-004  rzold =   4.682319658427864E-004  alpha = 
  0.487057953060184     
 delta_qm =   0.110909E-02 delta_en =   0.956504E+00 tol =   0.100000E-04
 Iteration #          9
  pAp =   2.912909841842135E-004  rzold =   1.411769821868696E-004  alpha = 
  0.484659635389157     
 delta_qm =   0.121149E-02 delta_en =   0.114128E+01 tol =   0.100000E-04
 Iteration #         10
  pAp =   9.618086034494202E-005  rzold =   1.310279836461078E-004  alpha = 
   1.36230829269140     
 delta_qm =   0.128709E-02 delta_en =   0.128816E+01 tol =   0.100000E-04
 Iteration #         11
  pAp =   1.409347843492500E-004  rzold =   3.453915890342684E-004  alpha = 
   2.45071925024808     
 delta_qm =   0.170000E-02 delta_en =   0.224727E+01 tol =   0.100000E-04
 Iteration #         12
  pAp =   1.795258935965165E-003  rzold =   1.205672147017875E-003  alpha = 
  0.671586768272891     
 delta_qm =   0.208213E-02 delta_en =   0.337109E+01 tol =   0.100000E-04
 Iteration #         13
  pAp =   4.697005274563283E-002  rzold =   2.340534697354521E-003  alpha = 
  4.983036127359126E-002
 delta_qm =   0.186360E-02 delta_en =   0.270061E+01 tol =   0.100000E-04
 Iteration #         14
  pAp =   3.343971288689633E-003  rzold =   1.024406969824322E-003  alpha = 
  0.306344427444455     
 delta_qm =   0.149937E-02 delta_en =   0.174814E+01 tol =   0.100000E-04
 Iteration #         15
  pAp =   8.521963814031065E-004  rzold =   3.354207191188401E-004  alpha = 
  0.393595568390684     
 delta_qm =   0.114196E-02 delta_en =   0.101405E+01 tol =   0.100000E-04
 Iteration #         16
  pAp =   1.221081433900458E-004  rzold =   9.663400660581333E-005  alpha = 
  0.791380524860972     
 delta_qm =   0.690009E-03 delta_en =   0.370225E+00 tol =   0.100000E-04
 Iteration #         17
  pAp =   9.806199572196947E-005  rzold =   7.095918195744702E-005  alpha = 
  0.723615519294898     
 delta_qm =   0.328137E-03 delta_en =   0.837271E-01 tol =   0.100000E-04
 Iteration #         18
  pAp =   4.086793154656187E-005  rzold =   2.703810973659267E-005  alpha = 
  0.661597216041812     
 delta_qm =   0.181721E-03 delta_en =   0.256782E-01 tol =   0.100000E-04
 Iteration #         19
  pAp =   6.796489038746877E-006  rzold =   3.625615161140673E-006  alpha = 
  0.533454132048325     
 delta_qm =   0.104862E-03 delta_en =   0.855056E-02 tol =   0.100000E-04
 Iteration #         20
  pAp =   8.617635665513466E-007  rzold =   6.114990304173994E-007  alpha = 
  0.709590256715691     
 delta_qm =   0.494640E-04 delta_en =   0.190254E-02 tol =   0.100000E-04
 Iteration #         21
  pAp =   1.755723873249178E-007  rzold =   1.556083787343825E-007  alpha = 
  0.886291865738606     
 delta_qm =   0.175001E-04 delta_en =   0.238142E-03 tol =   0.100000E-04
 Iteration #         22
  pAp =   6.203232922308757E-008  rzold =   4.154675550781225E-008  alpha = 
  0.669759720909353     
 delta_qm =   0.826800E-05 delta_en =   0.531567E-04 tol =   0.100000E-04
 Iteration #         23
  pAp =   1.117172608778536E-007  rzold =   1.072120307147004E-008  alpha = 
  9.596729267460377E-002
 delta_qm =   0.760863E-05 delta_en =   0.450162E-04 tol =   0.100000E-04
 Iteration #         24
  pAp =   1.072439102586857E-007  rzold =   1.785657010861114E-008  alpha = 
  0.166504280434561     
 delta_qm =   0.424142E-05 delta_en =   0.139887E-04 tol =   0.100000E-04
 Iteration #         25
  pAp =   2.282772393447978E-009  rzold =   1.400188678678391E-009  alpha = 
  0.613372004452664     
 delta_qm =   0.202276E-05 delta_en =   0.318159E-05 tol =   0.100000E-04
 Charges are converged, EXIT

%%%% ELECTRONS %%%%%%%%%%%%%%%%%%%%%%%%%%%%%%%%%%%%%%%%%%%%%%%%%%%%%%%%%%%%%%%%%
 number of electrons        =         89
 total electronic charge    =     90.0000000
 number of spin components  =  1

%%%% BOUNDARY %%%%%%%%%%%%%%%%%%%%%%%%%%%%%%%%%%%%%%%%%%%%%%%%%%%%%%%%%%%%%%%%%%
 boundary mode              = full                 
 boundary is built as a function of a smooth density
 function type              =  2 
 using the modified SCCS function with parameters 
 rhomax                     =      0.0050000 
 rhomin                     =      0.0001000 
 volume of the QM region    =   1602.2092137 
 surface of the QM region   =    269.7183064 

%%%% DIELECTRIC %%%%%%%%%%%%%%%%%%%%%%%%%%%%%%%%%%%%%%%%%%%%%%%%%%%%%%%%%%%%%%%%%
 dielectric build on homogeneous background
 environment bulk permitt.  =    100.0000000 
 dielectric flags
 need gradient              =  F 
 need factor depend. sqrt   =  T 
 total dielectric charge    =     -0.0012394

%%%% COMPUTE ELECTROSTATIC POTENTIAL %%%%%%%%%%%%%%%%%%%%%%%%%%%%%%%%%%%%%%%%%%%
 Warning: bad guess with residual norm =   0.483685E+04, reset to no guess
 Iteration #          1
  pAp =    1270.15688353241       rzold =    1269.37207967478       alpha = 
  0.999382120533449     
 delta_qm =   0.788199E-01 delta_en =   0.483090E+04 tol =   0.100000E-04
 Iteration #          2
  pAp =    712.256140151732       rzold =    22.5542758183506       alpha = 
  3.166596192985550E-002
 delta_qm =   0.172373E-01 delta_en =   0.231044E+03 tol =   0.100000E-04
 Iteration #          3
  pAp =    1.66966988951755       rzold =   0.243131596288932       alpha = 
  0.145616566373599     
 delta_qm =   0.153249E-01 delta_en =   0.182620E+03 tol =   0.100000E-04
 Iteration #          4
  pAp =  -8.771855280544678E-003  rzold =   1.377740625552985E-002  alpha = 
  -1.57063766043737     
 delta_qm =   0.134176E-01 delta_en =   0.139992E+03 tol =   0.100000E-04
 Iteration #          5
  pAp =   0.773192745289987       rzold =   6.917420334831409E-002  alpha = 
  8.946566528165004E-002
 delta_qm =   0.835203E-02 delta_en =   0.542426E+02 tol =   0.100000E-04
 Iteration #          6
  pAp =   7.220219985715609E-002  rzold =  -3.187571310253867E-002  alpha = 
 -0.441478419848719     
 delta_qm =   0.184349E-02 delta_en =   0.264264E+01 tol =   0.100000E-04
 Iteration #          7
  pAp =   1.219618979922582E-002  rzold =   3.849310902880590E-003  alpha = 
  0.315615857595536     
 delta_qm =   0.109608E-02 delta_en =   0.934194E+00 tol =   0.100000E-04
 Iteration #          8
  pAp =   1.041889092945430E-003  rzold =   4.686941748830251E-004  alpha = 
  0.449850351689566     
 delta_qm =   0.942958E-03 delta_en =   0.691418E+00 tol =   0.100000E-04
 Iteration #          9
  pAp =   3.076263121530229E-004  rzold =   1.378274265562688E-004  alpha = 
  0.448035233370119     
 delta_qm =   0.982883E-03 delta_en =   0.751207E+00 tol =   0.100000E-04
 Iteration #         10
  pAp =   8.344832748059051E-005  rzold =   1.050977391201503E-004  alpha = 
   1.25943493768159     
 delta_qm =   0.108596E-02 delta_en =   0.917033E+00 tol =   0.100000E-04
 Iteration #         11
  pAp =   7.160782560608277E-005  rzold =   2.322789723157568E-004  alpha = 
   3.24376519395424     
 delta_qm =   0.147173E-02 delta_en =   0.168428E+01 tol =   0.100000E-04
 Iteration #         12
  pAp =   1.081648053050056E-003  rzold =   8.360996655476096E-004  alpha = 
  0.772986798422977     
 delta_qm =   0.176634E-02 delta_en =   0.242608E+01 tol =   0.100000E-04
 Iteration #         13
  pAp =   1.157041929194459E-002  rzold =   9.825451992884213E-004  alpha = 
  8.491872027252087E-002
 delta_qm =   0.154457E-02 delta_en =   0.185511E+01 tol =   0.100000E-04
 Iteration #         14
  pAp =   8.041397603864396E-003  rzold =   1.312618565793667E-003  alpha = 
  0.163232640699531     
 delta_qm =   0.136941E-02 delta_en =   0.145823E+01 tol =   0.100000E-04
 Iteration #         15
  pAp =   5.934222524694564E-004  rzold =   2.498145655245403E-004  alpha = 
  0.420972696060801     
 delta_qm =   0.102297E-02 delta_en =   0.813737E+00 tol =   0.100000E-04
 Iteration #         16
  pAp =   1.293114673834060E-004  rzold =   1.115823852379475E-004  alpha = 
  0.862896288285925     
 delta_qm =   0.532442E-03 delta_en =   0.220446E+00 tol =   0.100000E-04
 Iteration #         17
  pAp =   1.218039230251609E-004  rzold =   8.054894163272294E-005  alpha = 
  0.661300060229456     
 delta_qm =   0.285556E-03 delta_en =   0.634071E-01 tol =   0.100000E-04
 Iteration #         18
  pAp =   5.645618793464392E-005  rzold =   3.131558524215343E-005  alpha = 
  0.554688270458602     
 delta_qm =   0.165684E-03 delta_en =   0.213460E-01 tol =   0.100000E-04
 Iteration #         19
  pAp =   7.793510438468768E-006  rzold =   4.095666062721384E-006  alpha = 
  0.525522624888674     
 delta_qm =   0.108354E-03 delta_en =   0.912952E-02 tol =   0.100000E-04
 Iteration #         20
  pAp =   1.185626241255208E-006  rzold =   7.666982429378053E-007  alpha = 
  0.646660993371833     
 delta_qm =   0.548510E-04 delta_en =   0.233951E-02 tol =   0.100000E-04
 Iteration #         21
  pAp =   2.125965805423714E-007  rzold =   1.923408902421386E-007  alpha = 
  0.904722407817863     
 delta_qm =   0.180507E-04 delta_en =   0.253365E-03 tol =   0.100000E-04
 Iteration #         22
  pAp =   8.175759771985275E-008  rzold =   5.233201731746671E-008  alpha = 
  0.640087512071789     
 delta_qm =   0.796218E-05 delta_en =   0.492970E-04 tol =   0.100000E-04
 Iteration #         23
  pAp =   5.582854954884258E-008  rzold =   1.386818217876162E-008  alpha = 
  0.248406635866991     
 delta_qm =   0.636777E-05 delta_en =   0.315306E-04 tol =   0.100000E-04
 Iteration #         24
  pAp =   7.538502822154305E-007  rzold =   4.740486889582904E-008  alpha = 
  6.288366538315095E-002
 delta_qm =   0.452122E-05 delta_en =   0.158953E-04 tol =   0.100000E-04
 Iteration #         25
  pAp =   2.473376470319636E-009  rzold =   2.033760544396250E-009  alpha = 
  0.822260811809787     
 delta_qm =   0.288266E-05 delta_en =   0.646164E-05 tol =   0.100000E-04
 Charges are converged, EXIT

%%%% ELECTRONS %%%%%%%%%%%%%%%%%%%%%%%%%%%%%%%%%%%%%%%%%%%%%%%%%%%%%%%%%%%%%%%%%
 number of electrons        =         89
 total electronic charge    =     90.0000000
 number of spin components  =  1

%%%% BOUNDARY %%%%%%%%%%%%%%%%%%%%%%%%%%%%%%%%%%%%%%%%%%%%%%%%%%%%%%%%%%%%%%%%%%
 boundary mode              = full                 
 boundary is built as a function of a smooth density
 function type              =  2 
 using the modified SCCS function with parameters 
 rhomax                     =      0.0050000 
 rhomin                     =      0.0001000 
 volume of the QM region    =   1601.5866597 
 surface of the QM region   =    267.1611227 

%%%% DIELECTRIC %%%%%%%%%%%%%%%%%%%%%%%%%%%%%%%%%%%%%%%%%%%%%%%%%%%%%%%%%%%%%%%%%
 dielectric build on homogeneous background
 environment bulk permitt.  =    100.0000000 
 dielectric flags
 need gradient              =  F 
 need factor depend. sqrt   =  T 
 total dielectric charge    =     -0.0001793

%%%% COMPUTE ELECTROSTATIC POTENTIAL %%%%%%%%%%%%%%%%%%%%%%%%%%%%%%%%%%%%%%%%%%%
 Warning: bad guess with residual norm =   0.370238E+04, reset to no guess
 Iteration #          1
  pAp =    1270.08621534933       rzold =    1269.38937418932       alpha = 
  0.999451343419373     
 delta_qm =   0.689645E-01 delta_en =   0.369834E+04 tol =   0.100000E-04
 Iteration #          2
  pAp =    602.935847965467       rzold =    19.4257613681321       alpha = 
  3.221862066036039E-002
 delta_qm =   0.153170E-01 delta_en =   0.182433E+03 tol =   0.100000E-04
 Iteration #          3
  pAp =    1.84440847403223       rzold =   0.266601779279557       alpha = 
  0.144545952283940     
 delta_qm =   0.131801E-01 delta_en =   0.135082E+03 tol =   0.100000E-04
 Iteration #          4
  pAp =  -3.278329814155747E-003  rzold =   1.362264113408471E-002  alpha = 
  -4.15536017006662     
 delta_qm =   0.307045E-01 delta_en =   0.733096E+03 tol =   0.100000E-04
 Iteration #          5
  pAp =    3.93116796926650       rzold =   0.135131728391585       alpha = 
  3.437444786079669E-002
 delta_qm =   0.232752E-01 delta_en =   0.421252E+03 tol =   0.100000E-04
 Iteration #          6
  pAp =   0.249821469387457       rzold =  -0.111641452612853       alpha = 
 -0.446884941020439     
 delta_qm =   0.155363E-02 delta_en =   0.187693E+01 tol =   0.100000E-04
 Iteration #          7
  pAp =   1.119828567800247E-002  rzold =   3.466145038705461E-003  alpha = 
  0.309524612817678     
 delta_qm =   0.982474E-03 delta_en =   0.750583E+00 tol =   0.100000E-04
 Iteration #          8
  pAp =   8.895480162034947E-004  rzold =   4.101097475887164E-004  alpha = 
  0.461031602699791     
 delta_qm =   0.857068E-03 delta_en =   0.571198E+00 tol =   0.100000E-04
 Iteration #          9
  pAp =   2.402164290031347E-004  rzold =   1.171321475269428E-004  alpha = 
  0.487610893280802     
 delta_qm =   0.889200E-03 delta_en =   0.614831E+00 tol =   0.100000E-04
 Iteration #         10
  pAp =   9.385261177864353E-005  rzold =   1.071746382795900E-004  alpha = 
   1.14194625219772     
 delta_qm =   0.959552E-03 delta_en =   0.715967E+00 tol =   0.100000E-04
 Iteration #         11
  pAp =   7.230279869199182E-005  rzold =   2.217096118387945E-004  alpha = 
   3.06640428655151     
 delta_qm =   0.134554E-02 delta_en =   0.140783E+01 tol =   0.100000E-04
 Iteration #         12
  pAp =   9.187507457443149E-004  rzold =   7.086924703323672E-004  alpha = 
  0.771365327990268     
 delta_qm =   0.134256E-02 delta_en =   0.140160E+01 tol =   0.100000E-04
 Iteration #         13
  pAp =   1.412259611348743E-003  rzold =   5.074980822399030E-004  alpha = 
  0.359351834578934     
 delta_qm =   0.131111E-02 delta_en =   0.133670E+01 tol =   0.100000E-04
 Iteration #         14
  pAp =   2.470672974713770E-002  rzold =   1.140852368064313E-003  alpha = 
  4.617577395877259E-002
 delta_qm =   0.113234E-02 delta_en =   0.997034E+00 tol =   0.100000E-04
 Iteration #         15
  pAp =   4.925953504924378E-004  rzold =   1.883329784987736E-004  alpha = 
  0.382327966170409     
 delta_qm =   0.878587E-03 delta_en =   0.600241E+00 tol =   0.100000E-04
 Iteration #         16
  pAp =   1.508005549411907E-004  rzold =   1.077215934215501E-004  alpha = 
  0.714331545156180     
 delta_qm =   0.435184E-03 delta_en =   0.147266E+00 tol =   0.100000E-04
 Iteration #         17
  pAp =   8.620031814507031E-005  rzold =   6.150410646923881E-005  alpha = 
  0.713502082042561     
 delta_qm =   0.212802E-03 delta_en =   0.352135E-01 tol =   0.100000E-04
 Iteration #         18
  pAp =   3.790446739291139E-005  rzold =   2.062353983585810E-005  alpha = 
  0.544092589986239     
 delta_qm =   0.109844E-03 delta_en =   0.938232E-02 tol =   0.100000E-04
 Iteration #         19
  pAp =   5.187932129705346E-006  rzold =   2.629623068308640E-006  alpha = 
  0.506873066679458     
 delta_qm =   0.712856E-04 delta_en =   0.395148E-02 tol =   0.100000E-04
 Iteration #         20
  pAp =   7.449598951489311E-007  rzold =   4.449669876894739E-007  alpha = 
  0.597303278454361     
 delta_qm =   0.404493E-04 delta_en =   0.127227E-02 tol =   0.100000E-04
 Iteration #         21
  pAp =   1.199334355494836E-007  rzold =   1.040201381006545E-007  alpha = 
  0.867315587384609     
 delta_qm =   0.127673E-04 delta_en =   0.126752E-03 tol =   0.100000E-04
 Iteration #         22
  pAp =   3.915355480808460E-008  rzold =   2.722655217096079E-008  alpha = 
  0.695378805434518     
 delta_qm =   0.525860E-05 delta_en =   0.215029E-04 tol =   0.100000E-04
 Iteration #         23
  pAp =   1.150172866784127E-008  rzold =   5.843206010804046E-009  alpha = 
  0.508028504197078     
 delta_qm =   0.276976E-05 delta_en =   0.596542E-05 tol =   0.100000E-04
 Charges are converged, EXIT

%%%% ELECTRONS %%%%%%%%%%%%%%%%%%%%%%%%%%%%%%%%%%%%%%%%%%%%%%%%%%%%%%%%%%%%%%%%%
 number of electrons        =         89
 total electronic charge    =     90.0000000
 number of spin components  =  1

%%%% BOUNDARY %%%%%%%%%%%%%%%%%%%%%%%%%%%%%%%%%%%%%%%%%%%%%%%%%%%%%%%%%%%%%%%%%%
 boundary mode              = full                 
 boundary is built as a function of a smooth density
 function type              =  2 
 using the modified SCCS function with parameters 
 rhomax                     =      0.0050000 
 rhomin                     =      0.0001000 
 volume of the QM region    =   1599.9605750 
 surface of the QM region   =    263.7705606 

%%%% DIELECTRIC %%%%%%%%%%%%%%%%%%%%%%%%%%%%%%%%%%%%%%%%%%%%%%%%%%%%%%%%%%%%%%%%%
 dielectric build on homogeneous background
 environment bulk permitt.  =    100.0000000 
 dielectric flags
 need gradient              =  F 
 need factor depend. sqrt   =  T 
 total dielectric charge    =     -0.0005559

%%%% COMPUTE ELECTROSTATIC POTENTIAL %%%%%%%%%%%%%%%%%%%%%%%%%%%%%%%%%%%%%%%%%%%
 Warning: bad guess with residual norm =   0.317412E+04, reset to no guess
 Iteration #          1
  pAp =    1270.28216348974       rzold =    1269.58878088339       alpha = 
  0.999454150718416     
 delta_qm =   0.638554E-01 delta_en =   0.317067E+04 tol =   0.100000E-04
 Iteration #          2
  pAp =    583.457972409393       rzold =    18.9961168181515       alpha = 
  3.255781515797428E-002
 delta_qm =   0.141547E-01 delta_en =   0.155796E+03 tol =   0.100000E-04
 Iteration #          3
  pAp =    2.05202611379499       rzold =   0.293186393377260       alpha = 
  0.142876541095788     
 delta_qm =   0.113330E-01 delta_en =   0.998719E+02 tol =   0.100000E-04
 Iteration #          4
  pAp =   2.450580351171573E-003  rzold =   1.243074305700887E-002  alpha = 
   5.07257109568596     
 delta_qm =   0.372931E-01 delta_en =   0.108147E+04 tol =   0.100000E-04
 Iteration #          5
  pAp =    4.79761684952701       rzold =  -0.116473567960761       alpha = 
 -2.427738012722794E-002
 delta_qm =   0.432724E-01 delta_en =   0.145606E+04 tol =   0.100000E-04
 Iteration #          6
  pAp =  -0.237951853566732       rzold =   0.127328332375720       alpha = 
 -0.535101241983018     
 delta_qm =   0.137799E-02 delta_en =   0.147655E+01 tol =   0.100000E-04
 Iteration #          7
  pAp =   9.386936829369264E-003  rzold =   2.955842793195674E-003  alpha = 
  0.314888961854693     
 delta_qm =   0.921062E-03 delta_en =   0.659681E+00 tol =   0.100000E-04
 Iteration #          8
  pAp =   9.216892536968660E-004  rzold =   4.010204036798562E-004  alpha = 
  0.435092849429866     
 delta_qm =   0.820665E-03 delta_en =   0.523706E+00 tol =   0.100000E-04
 Iteration #          9
  pAp =   2.328073249474927E-004  rzold =   1.193481555986970E-004  alpha = 
  0.512647768387935     
 delta_qm =   0.832404E-03 delta_en =   0.538796E+00 tol =   0.100000E-04
 Iteration #         10
  pAp =   9.701046233369050E-005  rzold =   1.098699038848057E-004  alpha = 
   1.13255726487399     
 delta_qm =   0.896494E-03 delta_en =   0.624958E+00 tol =   0.100000E-04
 Iteration #         11
  pAp =   1.015787131801540E-004  rzold =   2.388876790516565E-004  alpha = 
   2.35174941257603     
 delta_qm =   0.115605E-02 delta_en =   0.103922E+01 tol =   0.100000E-04
 Iteration #         12
  pAp =   1.043236332267722E-003  rzold =   7.284874789841560E-004  alpha = 
  0.698295732665498     
 delta_qm =   0.106222E-02 delta_en =   0.877371E+00 tol =   0.100000E-04
 Iteration #         13
  pAp =   6.445290398264538E-004  rzold =   3.779146614825134E-004  alpha = 
  0.586342333906740     
 delta_qm =   0.933628E-03 delta_en =   0.677804E+00 tol =   0.100000E-04
 Iteration #         14
  pAp =   7.041940769794621E-004  rzold =   1.158902230864096E-004  alpha = 
  0.164571425513125     
 delta_qm =   0.834291E-03 delta_en =   0.541242E+00 tol =   0.100000E-04
 Iteration #         15
  pAp =   2.827071165762847E-003  rzold =   3.446227624738649E-004  alpha = 
  0.121900985955857     
 delta_qm =   0.629248E-03 delta_en =   0.307893E+00 tol =   0.100000E-04
 Iteration #         16
  pAp =   1.861139106566642E-004  rzold =   8.666350431861056E-005  alpha = 
  0.465647645642587     
 delta_qm =   0.365335E-03 delta_en =   0.103786E+00 tol =   0.100000E-04
 Iteration #         17
  pAp =   8.197955634521599E-005  rzold =   5.052012295305703E-005  alpha = 
  0.616252700128270     
 delta_qm =   0.177786E-03 delta_en =   0.245781E-01 tol =   0.100000E-04
 Iteration #         18
  pAp =   2.794293206045150E-005  rzold =   1.624665062916793E-005  alpha = 
  0.581422543418853     
 delta_qm =   0.849391E-04 delta_en =   0.561012E-02 tol =   0.100000E-04
 Iteration #         19
  pAp =   3.919333876837373E-006  rzold =   2.037452949699357E-006  alpha = 
  0.519846742769319     
 delta_qm =   0.521851E-04 delta_en =   0.211763E-02 tol =   0.100000E-04
 Iteration #         20
  pAp =   5.202723407013152E-007  rzold =   3.052645660001203E-007  alpha = 
  0.586739947752423     
 delta_qm =   0.305386E-04 delta_en =   0.725194E-03 tol =   0.100000E-04
 Iteration #         21
  pAp =   8.670334417642444E-008  rzold =   6.890804900658778E-008  alpha = 
  0.794756530571339     
 delta_qm =   0.108138E-04 delta_en =   0.909306E-04 tol =   0.100000E-04
 Iteration #         22
  pAp =   4.058425691843812E-008  rzold =   2.336754699490494E-008  alpha = 
  0.575778608978021     
 delta_qm =   0.458559E-05 delta_en =   0.163511E-04 tol =   0.100000E-04
 Iteration #         23
  pAp =   9.486737618559817E-009  rzold =   5.356190488509995E-009  alpha = 
  0.564597726201594     
 delta_qm =   0.183666E-05 delta_en =   0.262308E-05 tol =   0.100000E-04
 Charges are converged, EXIT

%%%% ELECTRONS %%%%%%%%%%%%%%%%%%%%%%%%%%%%%%%%%%%%%%%%%%%%%%%%%%%%%%%%%%%%%%%%%
 number of electrons        =         89
 total electronic charge    =     90.0000000
 number of spin components  =  1

%%%% BOUNDARY %%%%%%%%%%%%%%%%%%%%%%%%%%%%%%%%%%%%%%%%%%%%%%%%%%%%%%%%%%%%%%%%%%
 boundary mode              = full                 
 boundary is built as a function of a smooth density
 function type              =  2 
 using the modified SCCS function with parameters 
 rhomax                     =      0.0050000 
 rhomin                     =      0.0001000 
 volume of the QM region    =   1599.2093445 
 surface of the QM region   =    261.3750193 

%%%% DIELECTRIC %%%%%%%%%%%%%%%%%%%%%%%%%%%%%%%%%%%%%%%%%%%%%%%%%%%%%%%%%%%%%%%%%
 dielectric build on homogeneous background
 environment bulk permitt.  =    100.0000000 
 dielectric flags
 need gradient              =  F 
 need factor depend. sqrt   =  T 
 total dielectric charge    =     -0.0006337

%%%% COMPUTE ELECTROSTATIC POTENTIAL %%%%%%%%%%%%%%%%%%%%%%%%%%%%%%%%%%%%%%%%%%%
 Warning: bad guess with residual norm =   0.252445E+04, reset to no guess
 Iteration #          1
  pAp =    1270.48789321666       rzold =    1269.85340615457       alpha = 
  0.999500595743198     
 delta_qm =   0.569495E-01 delta_en =   0.252195E+04 tol =   0.100000E-04
 Iteration #          2
  pAp =    514.650734642203       rzold =    16.9515208891983       alpha = 
  3.293791254564787E-002
 delta_qm =   0.133831E-01 delta_en =   0.139273E+03 tol =   0.100000E-04
 Iteration #          3
  pAp =    2.20976471968934       rzold =   0.313321180165629       alpha = 
  0.141789384803680     
 delta_qm =   0.101051E-01 delta_en =   0.794039E+02 tol =   0.100000E-04
 Iteration #          4
  pAp =   6.248491651004218E-003  rzold =   1.198990248989608E-002  alpha = 
   1.91884748505172     
 delta_qm =   0.143164E-01 delta_en =   0.159377E+03 tol =   0.100000E-04
 Iteration #          5
  pAp =   0.633983293330732       rzold =  -5.041655952740409E-002  alpha = 
 -7.952348280746116E-002
 delta_qm =   0.214690E-01 delta_en =   0.358410E+03 tol =   0.100000E-04
 Iteration #          6
  pAp =  -0.158619339708879       rzold =   6.834213019641265E-002  alpha = 
 -0.430856226749171     
 delta_qm =   0.130855E-02 delta_en =   0.133149E+01 tol =   0.100000E-04
 Iteration #          7
  pAp =   9.021029438085906E-003  rzold =   2.884659222452584E-003  alpha = 
  0.319770514246837     
 delta_qm =   0.850831E-03 delta_en =   0.562915E+00 tol =   0.100000E-04
 Iteration #          8
  pAp =   9.064468577603376E-004  rzold =   3.843182902480730E-004  alpha = 
  0.423983256114597     
 delta_qm =   0.758005E-03 delta_en =   0.446787E+00 tol =   0.100000E-04
 Iteration #          9
  pAp =   2.318840486148696E-004  rzold =   1.175421733774568E-004  alpha = 
  0.506900643142900     
 delta_qm =   0.759515E-03 delta_en =   0.448569E+00 tol =   0.100000E-04
 Iteration #         10
  pAp =   8.987815164551930E-005  rzold =   1.006160167485650E-004  alpha = 
   1.11947136101993     
 delta_qm =   0.812083E-03 delta_en =   0.512810E+00 tol =   0.100000E-04
 Iteration #         11
  pAp =   1.067969618144981E-004  rzold =   2.198806249850036E-004  alpha = 
   2.05886591949055     
 delta_qm =   0.101248E-02 delta_en =   0.797137E+00 tol =   0.100000E-04
 Iteration #         12
  pAp =   9.496070568022799E-004  rzold =   6.436935527247715E-004  alpha = 
  0.677852537124518     
 delta_qm =   0.842846E-03 delta_en =   0.552399E+00 tol =   0.100000E-04
 Iteration #         13
  pAp =   7.297287766140222E-003  rzold =   5.354684615451116E-004  alpha = 
  7.337910723895416E-002
 delta_qm =   0.947268E-03 delta_en =   0.697754E+00 tol =   0.100000E-04
 Iteration #         14
  pAp =   2.073892723641086E-003  rzold =   5.869304138591900E-004  alpha = 
  0.283009052092497     
 delta_qm =   0.780218E-03 delta_en =   0.473356E+00 tol =   0.100000E-04
 Iteration #         15
  pAp =   9.433670140526834E-005  rzold =   6.922506654519778E-005  alpha = 
  0.733808427833495     
 delta_qm =   0.501824E-03 delta_en =   0.195821E+00 tol =   0.100000E-04
 Iteration #         16
  pAp =   1.106564925435787E-004  rzold =   5.729575724343630E-005  alpha = 
  0.517780348232817     
 delta_qm =   0.295493E-03 delta_en =   0.678969E-01 tol =   0.100000E-04
 Iteration #         17
  pAp =   1.002922085586810E-004  rzold =   4.702028301882032E-005  alpha = 
  0.468832860444077     
 delta_qm =   0.147947E-03 delta_en =   0.170203E-01 tol =   0.100000E-04
 Iteration #         18
  pAp =   2.319317241819655E-005  rzold =   1.327482570128199E-005  alpha = 
  0.572359203903776     
 delta_qm =   0.690242E-04 delta_en =   0.370475E-02 tol =   0.100000E-04
 Iteration #         19
  pAp =   3.103704945678245E-006  rzold =   1.624832796674273E-006  alpha = 
  0.523513937411084     
 delta_qm =   0.408934E-04 delta_en =   0.130036E-02 tol =   0.100000E-04
 Iteration #         20
  pAp =   4.123986678399993E-007  rzold =   2.326138713779637E-007  alpha = 
  0.564050976683107     
 delta_qm =   0.247999E-04 delta_en =   0.478251E-03 tol =   0.100000E-04
 Iteration #         21
  pAp =   6.816329837458072E-008  rzold =   5.148749756407853E-008  alpha = 
  0.755355136735565     
 delta_qm =   0.926503E-05 delta_en =   0.667499E-04 tol =   0.100000E-04
 Iteration #         22
  pAp =   3.103910664283981E-008  rzold =   1.815401144652483E-008  alpha = 
  0.584875449394181     
 delta_qm =   0.376148E-05 delta_en =   0.110021E-04 tol =   0.100000E-04
 Iteration #         23
  pAp =   2.295994562466550E-008  rzold =   4.345278378406376E-009  alpha = 
  0.189254732978911     
 delta_qm =   0.264798E-05 delta_en =   0.545235E-05 tol =   0.100000E-04
 Charges are converged, EXIT

%%%% ELECTRONS %%%%%%%%%%%%%%%%%%%%%%%%%%%%%%%%%%%%%%%%%%%%%%%%%%%%%%%%%%%%%%%%%
 number of electrons        =         89
 total electronic charge    =     90.0000000
 number of spin components  =  1

%%%% BOUNDARY %%%%%%%%%%%%%%%%%%%%%%%%%%%%%%%%%%%%%%%%%%%%%%%%%%%%%%%%%%%%%%%%%%
 boundary mode              = full                 
 boundary is built as a function of a smooth density
 function type              =  2 
 using the modified SCCS function with parameters 
 rhomax                     =      0.0050000 
 rhomin                     =      0.0001000 
 volume of the QM region    =   1596.7883357 
 surface of the QM region   =    261.8100449 

%%%% DIELECTRIC %%%%%%%%%%%%%%%%%%%%%%%%%%%%%%%%%%%%%%%%%%%%%%%%%%%%%%%%%%%%%%%%%
 dielectric build on homogeneous background
 environment bulk permitt.  =    100.0000000 
 dielectric flags
 need gradient              =  F 
 need factor depend. sqrt   =  T 
 total dielectric charge    =     -0.0006363

%%%% COMPUTE ELECTROSTATIC POTENTIAL %%%%%%%%%%%%%%%%%%%%%%%%%%%%%%%%%%%%%%%%%%%
 Warning: bad guess with residual norm =   0.217222E+04, reset to no guess
 Iteration #          1
  pAp =    1270.75715880228       rzold =    1270.19875852517       alpha = 
  0.999560576721328     
 delta_qm =   0.528304E-01 delta_en =   0.217032E+04 tol =   0.100000E-04
 Iteration #          2
  pAp =    436.371350774815       rzold =    14.4519112810660       alpha = 
  3.311837785731214E-002
 delta_qm =   0.134502E-01 delta_en =   0.140673E+03 tol =   0.100000E-04
 Iteration #          3
  pAp =    2.54379840016902       rzold =   0.353790483173022       alpha = 
  0.139079607546539     
 delta_qm =   0.976876E-02 delta_en =   0.742053E+02 tol =   0.100000E-04
 Iteration #          4
  pAp =   8.676960207785687E-003  rzold =   1.192963574805773E-002  alpha = 
   1.37486348472054     
 delta_qm =   0.113395E-01 delta_en =   0.999870E+02 tol =   0.100000E-04
 Iteration #          5
  pAp =   0.352071745339861       rzold =  -2.715439035584308E-002  alpha = 
 -7.712743415303168E-002
 delta_qm =   0.160716E-01 delta_en =   0.200852E+03 tol =   0.100000E-04
 Iteration #          6
  pAp =  -5.409524472392242E-002  rzold =   3.363374297976535E-002  alpha = 
 -0.621750454248182     
 delta_qm =   0.136879E-02 delta_en =   0.145691E+01 tol =   0.100000E-04
 Iteration #          7
  pAp =   1.023713000097235E-002  rzold =   3.257881782886563E-003  alpha = 
  0.318241712528523     
 delta_qm =   0.829264E-03 delta_en =   0.534739E+00 tol =   0.100000E-04
 Iteration #          8
  pAp =   9.497329877544192E-004  rzold =   3.954675420234152E-004  alpha = 
  0.416398658488711     
 delta_qm =   0.720204E-03 delta_en =   0.403336E+00 tol =   0.100000E-04
 Iteration #          9
  pAp =   2.430912662579501E-004  rzold =   1.161912095134203E-004  alpha = 
  0.477973607616684     
 delta_qm =   0.711075E-03 delta_en =   0.393176E+00 tol =   0.100000E-04
 Iteration #         10
  pAp =   8.165207999246661E-005  rzold =   8.708809182092053E-005  alpha = 
   1.06657530131450     
 delta_qm =   0.750372E-03 delta_en =   0.437834E+00 tol =   0.100000E-04
 Iteration #         11
  pAp =   9.287455692499750E-005  rzold =   1.807466899501055E-004  alpha = 
   1.94613784371613     
 delta_qm =   0.937213E-03 delta_en =   0.683019E+00 tol =   0.100000E-04
 Iteration #         12
  pAp =   7.681857433486594E-004  rzold =   5.606043195127462E-004  alpha = 
  0.729777042032792     
 delta_qm =   0.894718E-03 delta_en =   0.622485E+00 tol =   0.100000E-04
 Iteration #         13
  pAp =   5.877543723986585E-004  rzold =   3.145927695368792E-004  alpha = 
  0.535245307071062     
 delta_qm =   0.827825E-03 delta_en =   0.532885E+00 tol =   0.100000E-04
 Iteration #         14
  pAp =   2.363248989813027E-002  rzold =   1.016942178113487E-003  alpha = 
  4.303152915740566E-002
 delta_qm =   0.834696E-03 delta_en =   0.541768E+00 tol =   0.100000E-04
 Iteration #         15
  pAp =   9.685884098952874E-005  rzold =   7.910588626398133E-005  alpha = 
  0.816713120411314     
 delta_qm =   0.513258E-03 delta_en =   0.204846E+00 tol =   0.100000E-04
 Iteration #         16
  pAp =   8.431326269995172E-005  rzold =   5.959425361690277E-005  alpha = 
  0.706819445820555     
 delta_qm =   0.258669E-03 delta_en =   0.520288E-01 tol =   0.100000E-04
 Iteration #         17
  pAp =   1.454595787919521E-004  rzold =   5.254774670634174E-005  alpha = 
  0.361253257728044     
 delta_qm =   0.153528E-03 delta_en =   0.183286E-01 tol =   0.100000E-04
 Iteration #         18
  pAp =   3.492689303010472E-005  rzold =   1.714684283699483E-005  alpha = 
  0.490935246436474     
 delta_qm =   0.751246E-04 delta_en =   0.438854E-02 tol =   0.100000E-04
 Iteration #         19
  pAp =   3.808746516491057E-006  rzold =   1.978801392544784E-006  alpha = 
  0.519541372463880     
 delta_qm =   0.433761E-04 delta_en =   0.146305E-02 tol =   0.100000E-04
 Iteration #         20
  pAp =   5.073480722048411E-007  rzold =   2.830279413461044E-007  alpha = 
  0.557857527902131     
 delta_qm =   0.262620E-04 delta_en =   0.536304E-03 tol =   0.100000E-04
 Iteration #         21
  pAp =   8.536623272105110E-008  rzold =   6.385248817474358E-008  alpha = 
  0.747982968668567     
 delta_qm =   0.977730E-05 delta_en =   0.743352E-04 tol =   0.100000E-04
 Iteration #         22
  pAp =   3.696592092675585E-008  rzold =   2.196075123884252E-008  alpha = 
  0.594080999154748     
 delta_qm =   0.386339E-05 delta_en =   0.116063E-04 tol =   0.100000E-04
 Iteration #         23
  pAp =   7.934914591678906E-009  rzold =   4.583009468205407E-009  alpha = 
  0.577575147817150     
 delta_qm =   0.148948E-05 delta_en =   0.172515E-05 tol =   0.100000E-04
 Charges are converged, EXIT

%%%% ELECTRONS %%%%%%%%%%%%%%%%%%%%%%%%%%%%%%%%%%%%%%%%%%%%%%%%%%%%%%%%%%%%%%%%%
 number of electrons        =         89
 total electronic charge    =     90.0000000
 number of spin components  =  1

%%%% BOUNDARY %%%%%%%%%%%%%%%%%%%%%%%%%%%%%%%%%%%%%%%%%%%%%%%%%%%%%%%%%%%%%%%%%%
 boundary mode              = full                 
 boundary is built as a function of a smooth density
 function type              =  2 
 using the modified SCCS function with parameters 
 rhomax                     =      0.0050000 
 rhomin                     =      0.0001000 
 volume of the QM region    =   1597.5151877 
 surface of the QM region   =    261.6192702 

%%%% DIELECTRIC %%%%%%%%%%%%%%%%%%%%%%%%%%%%%%%%%%%%%%%%%%%%%%%%%%%%%%%%%%%%%%%%%
 dielectric build on homogeneous background
 environment bulk permitt.  =    100.0000000 
 dielectric flags
 need gradient              =  F 
 need factor depend. sqrt   =  T 
 total dielectric charge    =     -0.0006895

%%%% COMPUTE ELECTROSTATIC POTENTIAL %%%%%%%%%%%%%%%%%%%%%%%%%%%%%%%%%%%%%%%%%%%
 Warning: bad guess with residual norm =   0.208751E+04, reset to no guess
 Iteration #          1
  pAp =    1270.91698588531       rzold =    1270.37688722872       alpha = 
  0.999575032309286     
 delta_qm =   0.517909E-01 delta_en =   0.208575E+04 tol =   0.100000E-04
 Iteration #          2
  pAp =    418.573092599576       rzold =    13.8977363248287       alpha = 
  3.320265103166545E-002
 delta_qm =   0.134211E-01 delta_en =   0.140066E+03 tol =   0.100000E-04
 Iteration #          3
  pAp =    2.53119516103125       rzold =   0.351938464319196       alpha = 
  0.139040430282669     
 delta_qm =   0.985186E-02 delta_en =   0.754732E+02 tol =   0.100000E-04
 Iteration #          4
  pAp =   7.758285210818765E-003  rzold =   1.200812275568053E-002  alpha = 
   1.54778052486849     
 delta_qm =   0.120579E-01 delta_en =   0.113058E+03 tol =   0.100000E-04
 Iteration #          5
  pAp =   0.429259903425487       rzold =  -3.612151947563939E-002  alpha = 
 -8.414836603044044E-002
 delta_qm =   0.179532E-01 delta_en =   0.250634E+03 tol =   0.100000E-04
 Iteration #          6
  pAp =  -9.461163110554627E-002  rzold =   4.774721769568128E-002  alpha = 
 -0.504665410983304     
 delta_qm =   0.133813E-02 delta_en =   0.139237E+01 tol =   0.100000E-04
 Iteration #          7
  pAp =   9.715904970235214E-003  rzold =   3.119775105503628E-003  alpha = 
  0.321099796165267     
 delta_qm =   0.814912E-03 delta_en =   0.516389E+00 tol =   0.100000E-04
 Iteration #          8
  pAp =   9.208645715651135E-004  rzold =   3.821405822045098E-004  alpha = 
  0.414980219680966     
 delta_qm =   0.707489E-03 delta_en =   0.389220E+00 tol =   0.100000E-04
 Iteration #          9
  pAp =   2.439299052251147E-004  rzold =   1.149075834532336E-004  alpha = 
  0.471068044515449     
 delta_qm =   0.696610E-03 delta_en =   0.377342E+00 tol =   0.100000E-04
 Iteration #         10
  pAp =   7.507609481663700E-005  rzold =   8.289376580918498E-005  alpha = 
   1.10412996322786     
 delta_qm =   0.734939E-03 delta_en =   0.420009E+00 tol =   0.100000E-04
 Iteration #         11
  pAp =   9.201919328740133E-005  rzold =   1.766560667608057E-004  alpha = 
   1.91977413026280     
 delta_qm =   0.916604E-03 delta_en =   0.653310E+00 tol =   0.100000E-04
 Iteration #         12
  pAp =   7.536897161505481E-004  rzold =   5.404856321875245E-004  alpha = 
  0.717119552788967     
 delta_qm =   0.839111E-03 delta_en =   0.547513E+00 tol =   0.100000E-04
 Iteration #         13
  pAp =   9.192537248375203E-004  rzold =   3.064116519958610E-004  alpha = 
  0.333326527504710     
 delta_qm =   0.996301E-03 delta_en =   0.771858E+00 tol =   0.100000E-04
 Iteration #         14
  pAp =   2.174406132497764E-002  rzold =   1.451642110183270E-003  alpha = 
  6.676039441241610E-002
 delta_qm =   0.791647E-03 delta_en =   0.487326E+00 tol =   0.100000E-04
 Iteration #         15
  pAp =   8.220085111456392E-005  rzold =   6.971351240204656E-005  alpha = 
  0.848087476672064     
 delta_qm =   0.485144E-03 delta_en =   0.183019E+00 tol =   0.100000E-04
 Iteration #         16
  pAp =   8.907166460868540E-005  rzold =   5.650378444973567E-005  alpha = 
  0.634363180456672     
 delta_qm =   0.260914E-03 delta_en =   0.529360E-01 tol =   0.100000E-04
 Iteration #         17
  pAp =   1.345378025319900E-004  rzold =   5.144903600115717E-005  alpha = 
  0.382413232808108     
 delta_qm =   0.148741E-03 delta_en =   0.172036E-01 tol =   0.100000E-04
 Iteration #         18
  pAp =   2.928886857563493E-005  rzold =   1.509801183866731E-005  alpha = 
  0.515486345936462     
 delta_qm =   0.706338E-04 delta_en =   0.387955E-02 tol =   0.100000E-04
 Iteration #         19
  pAp =   3.516788745281258E-006  rzold =   1.814400882395646E-006  alpha = 
  0.515925468889812     
 delta_qm =   0.410289E-04 delta_en =   0.130899E-02 tol =   0.100000E-04
 Iteration #         20
  pAp =   4.648672837323631E-007  rzold =   2.591201231584542E-007  alpha = 
  0.557406666862013     
 delta_qm =   0.249450E-04 delta_en =   0.483863E-03 tol =   0.100000E-04
 Iteration #         21
  pAp =   7.564524992299738E-008  rzold =   5.739664686324094E-008  alpha = 
  0.758760753935872     
 delta_qm =   0.911678E-05 delta_en =   0.646307E-04 tol =   0.100000E-04
 Iteration #         22
  pAp =   3.273453546199139E-008  rzold =   1.949623480870504E-008  alpha = 
  0.595586115200640     
 delta_qm =   0.366197E-05 delta_en =   0.104276E-04 tol =   0.100000E-04
 Iteration #         23
  pAp =   7.677595935758457E-009  rzold =   4.126983529281382E-009  alpha = 
  0.537535911477176     
 delta_qm =   0.150320E-05 delta_en =   0.175707E-05 tol =   0.100000E-04
 Charges are converged, EXIT

%%%% ELECTRONS %%%%%%%%%%%%%%%%%%%%%%%%%%%%%%%%%%%%%%%%%%%%%%%%%%%%%%%%%%%%%%%%%
 number of electrons        =         89
 total electronic charge    =     90.0000000
 number of spin components  =  1

%%%% BOUNDARY %%%%%%%%%%%%%%%%%%%%%%%%%%%%%%%%%%%%%%%%%%%%%%%%%%%%%%%%%%%%%%%%%%
 boundary mode              = full                 
 boundary is built as a function of a smooth density
 function type              =  2 
 using the modified SCCS function with parameters 
 rhomax                     =      0.0050000 
 rhomin                     =      0.0001000 
 volume of the QM region    =   1596.5856011 
 surface of the QM region   =    262.1245795 

%%%% DIELECTRIC %%%%%%%%%%%%%%%%%%%%%%%%%%%%%%%%%%%%%%%%%%%%%%%%%%%%%%%%%%%%%%%%%
 dielectric build on homogeneous background
 environment bulk permitt.  =    100.0000000 
 dielectric flags
 need gradient              =  F 
 need factor depend. sqrt   =  T 
 total dielectric charge    =     -0.0007073

%%%% COMPUTE ELECTROSTATIC POTENTIAL %%%%%%%%%%%%%%%%%%%%%%%%%%%%%%%%%%%%%%%%%%%
 Warning: bad guess with residual norm =   0.194041E+04, reset to no guess
 Iteration #          1
  pAp =    1270.99052789911       rzold =    1270.48753714722       alpha = 
  0.999604252950086     
 delta_qm =   0.499342E-01 delta_en =   0.193889E+04 tol =   0.100000E-04
 Iteration #          2
  pAp =    381.607673054902       rzold =    12.7094790274955       alpha = 
  3.330509296564109E-002
 delta_qm =   0.135297E-01 delta_en =   0.142342E+03 tol =   0.100000E-04
 Iteration #          3
  pAp =    2.67907713329221       rzold =   0.368837574029041       alpha = 
  0.137673368730445     
 delta_qm =   0.984832E-02 delta_en =   0.754189E+02 tol =   0.100000E-04
 Iteration #          4
  pAp =   8.320517412752944E-003  rzold =   1.214959433239787E-002  alpha = 
   1.46019697209888     
 delta_qm =   0.117598E-01 delta_en =   0.107536E+03 tol =   0.100000E-04
 Iteration #          5
  pAp =   0.402484214490359       rzold =  -3.135336266122163E-002  alpha = 
 -7.789960831363898E-002
 delta_qm =   0.168940E-01 delta_en =   0.221932E+03 tol =   0.100000E-04
 Iteration #          6
  pAp =  -6.949859430104188E-002  rzold =   3.970747906039428E-002  alpha = 
 -0.571342189863530     
 delta_qm =   0.137774E-02 delta_en =   0.147601E+01 tol =   0.100000E-04
 Iteration #          7
  pAp =   1.014641088865358E-002  rzold =   3.277727342615848E-003  alpha = 
  0.323043032515195     
 delta_qm =   0.804647E-03 delta_en =   0.503463E+00 tol =   0.100000E-04
 Iteration #          8
  pAp =   9.223817256930306E-004  rzold =   3.803078120061641E-004  alpha = 
  0.412310653401573     
 delta_qm =   0.687569E-03 delta_en =   0.367612E+00 tol =   0.100000E-04
 Iteration #          9
  pAp =   2.486160520760561E-004  rzold =   1.137254227181863E-004  alpha = 
  0.457433949934156     
 delta_qm =   0.673732E-03 delta_en =   0.352964E+00 tol =   0.100000E-04
 Iteration #         10
  pAp =   7.046903884988824E-005  rzold =   7.641887144950445E-005  alpha = 
   1.08443186818952     
 delta_qm =   0.707636E-03 delta_en =   0.389382E+00 tol =   0.100000E-04
 Iteration #         11
  pAp =   8.367425605468848E-005  rzold =   1.591331553774934E-004  alpha = 
   1.90181739140275     
 delta_qm =   0.892781E-03 delta_en =   0.619793E+00 tol =   0.100000E-04
 Iteration #         12
  pAp =   6.859846131531877E-004  rzold =   5.030173337343040E-004  alpha = 
  0.733277866717945     
 delta_qm =   0.843419E-03 delta_en =   0.553150E+00 tol =   0.100000E-04
 Iteration #         13
  pAp =   1.208625656923647E-003  rzold =   3.187243337668477E-004  alpha = 
  0.263708065389003     
 delta_qm =   0.102562E-02 delta_en =   0.817953E+00 tol =   0.100000E-04
 Iteration #         14
  pAp =   1.648134706534576E-002  rzold =   1.419716939179631E-003  alpha = 
  8.614083142298337E-002
 delta_qm =   0.828739E-03 delta_en =   0.534063E+00 tol =   0.100000E-04
 Iteration #         15
  pAp =   9.864867330698381E-005  rzold =   7.840571519755361E-005  alpha = 
  0.794797462238176     
 delta_qm =   0.542723E-03 delta_en =   0.229040E+00 tol =   0.100000E-04
 Iteration #         16
  pAp =   1.536739219571327E-004  rzold =   7.681197123104762E-005  alpha = 
  0.499837384591996     
 delta_qm =   0.323143E-03 delta_en =   0.811980E-01 tol =   0.100000E-04
 Iteration #         17
  pAp =   1.233291040235506E-004  rzold =   6.111259092615724E-005  alpha = 
  0.495524486373365     
 delta_qm =   0.161334E-03 delta_en =   0.202398E-01 tol =   0.100000E-04
 Iteration #         18
  pAp =   3.028643781709291E-005  rzold =   1.687166899203995E-005  alpha = 
  0.557070101605611     
 delta_qm =   0.759736E-04 delta_en =   0.448830E-02 tol =   0.100000E-04
 Iteration #         19
  pAp =   3.952343896890964E-006  rzold =   2.065853230622425E-006  alpha = 
  0.522690657624072     
 delta_qm =   0.433329E-04 delta_en =   0.146013E-02 tol =   0.100000E-04
 Iteration #         20
  pAp =   5.280330151624882E-007  rzold =   2.934842658387858E-007  alpha = 
  0.555806658696282     
 delta_qm =   0.263105E-04 delta_en =   0.538290E-03 tol =   0.100000E-04
 Iteration #         21
  pAp =   9.040675038901806E-008  rzold =   6.749276721789366E-008  alpha = 
  0.746545660887864     
 delta_qm =   0.968097E-05 delta_en =   0.728776E-04 tol =   0.100000E-04
 Iteration #         22
  pAp =   3.841036319664259E-008  rzold =   2.292795776910533E-008  alpha = 
  0.596921139530111     
 delta_qm =   0.389829E-05 delta_en =   0.118169E-04 tol =   0.100000E-04
 Iteration #         23
  pAp =   8.840998873804021E-009  rzold =   4.748735194987563E-009  alpha = 
  0.537126546759113     
 delta_qm =   0.164616E-05 delta_en =   0.210717E-05 tol =   0.100000E-04
 Charges are converged, EXIT

%%%% ELECTRONS %%%%%%%%%%%%%%%%%%%%%%%%%%%%%%%%%%%%%%%%%%%%%%%%%%%%%%%%%%%%%%%%%
 number of electrons        =         89
 total electronic charge    =     90.0000000
 number of spin components  =  1

%%%% BOUNDARY %%%%%%%%%%%%%%%%%%%%%%%%%%%%%%%%%%%%%%%%%%%%%%%%%%%%%%%%%%%%%%%%%%
 boundary mode              = full                 
 boundary is built as a function of a smooth density
 function type              =  2 
 using the modified SCCS function with parameters 
 rhomax                     =      0.0050000 
 rhomin                     =      0.0001000 
 volume of the QM region    =   1596.5856011 
 surface of the QM region   =    262.1245795 

%%%% DIELECTRIC %%%%%%%%%%%%%%%%%%%%%%%%%%%%%%%%%%%%%%%%%%%%%%%%%%%%%%%%%%%%%%%%%
 dielectric build on homogeneous background
 environment bulk permitt.  =    100.0000000 
 dielectric flags
 need gradient              =  F 
 need factor depend. sqrt   =  T 
 total dielectric charge    =     -0.0007167
