
     Program PWSCF v.6.1 (svn rev. 13369) starts on 10Oct2017 at 11:59:12 

     This program is part of the open-source Quantum ESPRESSO suite
     for quantum simulation of materials; please cite
         "P. Giannozzi et al., J. Phys.:Condens. Matter 21 395502 (2009);
          URL http://www.quantum-espresso.org", 
     in publications or presentations arising from this work. More details at
     http://www.quantum-espresso.org/quote

     Serial version
     Reading input from neutral.in

     Current dimensions of program PWSCF are:
     Max number of different atomic species (ntypx) = 10
     Max number of k-points (npk) =  40000
     Max angular momentum in pseudopotentials (lmaxx) =  3
     Message from routine  environ_checkin    :
      use some old legacy code for environ
               file C.pbe-rrkjus.UPF: wavefunction(s)  2S 2P renormalized
               file O.pbe-rrkjus.UPF: wavefunction(s)  2S renormalized

     gamma-point specific algorithms are used

     G-vector sticks info
     --------------------
     sticks:   dense  smooth     PW     G-vecs:    dense   smooth      PW
     Sum        2205    1099    269               330909   116965   14571



     bravais-lattice index     =            8
     lattice parameter (alat)  =      10.6881  a.u.
     unit-cell volume          =    4181.1215 (a.u.)^3
     number of atoms/cell      =           10
     number of atomic types    =            3
     number of electrons       =        90.00
     number of Kohn-Sham states=           80
     kinetic-energy cutoff     =      35.0000  Ry
     charge density cutoff     =     280.0000  Ry
     convergence threshold     =      5.0E-02
     mixing beta               =       0.7000
     number of iterations used =            8  plain     mixing
     Exchange-correlation      = PBE ( 1  4  3  4 0 0)


     Environ Module
     ==============

     Plese cite
         O. Andreussi, I. Dabo and N. Marzari, J. Chem. Phys. 136, 064102 (2012)         
     in publications or presentations arising from this work.

     compensation onset threshold      =               0.1000E+03 
     switching function adopted        =                     SCCS 
     density limit for vacuum region   =               0.5000E-02 
     density limit for bulk solvent    =               0.1000E-03 
     static permittivity               =                   100.00 
     epsilon calculation mode          =               electronic 

     Electrostatic Setup
     -------------------
     electrostatic problem to solve    = generalized              
     numerical solver adopted          = iterative                
     type of auxiliary density adopted = full                     
     type of core tool for poisson     = fft                      
     type of core tool for s(r) deriv  = fd                       
     type of numerical differentiator  =            central diff. 
     number of points in num. diff.    =                        2 



     celldm(1)=  10.688100  celldm(2)=   0.866025  celldm(3)=   3.954220
     celldm(4)=   0.000000  celldm(5)=   0.000000  celldm(6)=   0.000000

     crystal axes: (cart. coord. in units of alat)
               a(1) = (   1.000000   0.000000   0.000000 )  
               a(2) = (   0.000000   0.866025   0.000000 )  
               a(3) = (   0.000000   0.000000   3.954220 )  

     reciprocal axes: (cart. coord. in units 2 pi/alat)
               b(1) = (  1.000000  0.000000  0.000000 )  
               b(2) = (  0.000000  1.154701  0.000000 )  
               b(3) = (  0.000000  0.000000  0.252894 )  


     PseudoPot. # 1 for C  read from file:
     ../../../pseudo/C.pbe-rrkjus.UPF
     MD5 check sum: 00fb224312de0c5b6853bd333518df6f
     Pseudo is Ultrasoft, Zval =  4.0
     Generated by new atomic code, or converted to UPF format
     Using radial grid of  627 points,  4 beta functions with: 
                l(1) =   0
                l(2) =   0
                l(3) =   1
                l(4) =   1
     Q(r) pseudized with 0 coefficients 


     PseudoPot. # 2 for O  read from file:
     ../../../pseudo/O.pbe-rrkjus.UPF
     MD5 check sum: 390ba29e75625707450f3bd3f0eb6be9
     Pseudo is Ultrasoft, Zval =  6.0
     Generated by new atomic code, or converted to UPF format
     Using radial grid of 1269 points,  4 beta functions with: 
                l(1) =   0
                l(2) =   0
                l(3) =   1
                l(4) =   1
     Q(r) pseudized with 0 coefficients 


     PseudoPot. # 3 for Pt read from file:
     ../../../pseudo/Pt.pbe-n-rrkjus.UPF
     MD5 check sum: df5be8f5ed4f66d4aed38ca70ec8d507
     Pseudo is Ultrasoft + core correction, Zval = 10.0
     Generated using "atomic" code by A. Dal Corso  v.5.0.2 svn rev. 9415
     Using radial grid of 1277 points,  6 beta functions with: 
                l(1) =   0
                l(2) =   0
                l(3) =   1
                l(4) =   1
                l(5) =   2
                l(6) =   2
     Q(r) pseudized with 0 coefficients 


     atomic species   valence    mass     pseudopotential
        C              4.00     1.00000     C ( 1.00)
        O              6.00     1.00000     O ( 1.00)
        Pt            10.00     1.00000     Pt( 1.00)

     No symmetry found



   Cartesian axes

     site n.     atom                  positions (alat units)
         1           C   tau(   1) = (   0.4991611   0.4347567   1.2070461  )
         2           O   tau(   2) = (   0.4991542   0.4322212   1.4109013  )
         3           Pt  tau(   3) = (   0.7542339   0.0091745   0.8413229  )
         4           Pt  tau(   4) = (   0.2441023   0.0091745   0.8413226  )
         5           Pt  tau(   5) = (   0.0000034   0.4416918   0.8391348  )
         6           Pt  tau(   6) = (   0.4991682   0.4417635   0.8776299  )
         7           Pt  tau(   7) = (   0.0000038   0.7300598   0.4308181  )
         8           Pt  tau(   8) = (   0.4991683   0.7202168   0.4447460  )
         9           Pt  tau(   9) = (   0.2524172   0.2949237   0.4386572  )
        10           Pt  tau(  10) = (   0.7459196   0.2949237   0.4386575  )

     number of k points=     1  Marzari-Vanderbilt smearing, width (Ry)=  0.0300
                       cart. coord. in units 2pi/alat
        k(    1) = (   0.0000000   0.0000000   0.0000000), wk =   2.0000000

     Dense  grid:   165455 G-vectors     FFT dimensions: (  60,  50, 225)

     Smooth grid:    58483 G-vectors     FFT dimensions: (  45,  36, 160)

     Estimated max dynamical RAM per process >     216.67MB

     Initial potential from superposition of free atoms
     Check: negative starting charge=   -0.001782

     starting charge   89.99859, renormalised to   90.00000

     negative rho (up, down):  1.782E-03 0.000E+00
     Starting wfc are   80 randomized atomic wfcs

     total cpu time spent up to now is       20.5 secs

     Self-consistent Calculation

     iteration #  1     ecut=    35.00 Ry     beta=0.70
     Davidson diagonalization with overlap
     ethr =  1.00E-02,  avg # of iterations =  8.0

     negative rho (up, down):  1.109E-03 0.000E+00

     add environment contribution to local potential
     polarization accuracy = 8.5E-12, # of iterations =  48

     total cpu time spent up to now is       54.9 secs

     total energy              =    -623.07845200 Ry
     Harris-Foulkes estimate   =    -624.45738907 Ry
     estimated scf accuracy    <       1.79975746 Ry
     electrostatic embedding   =       0.00000000 Ry
     correction to one-el term =       0.00000000 Ry

     iteration #  2     ecut=    35.00 Ry     beta=0.70
     Davidson diagonalization with overlap
     ethr =  2.00E-03,  avg # of iterations =  6.0

     negative rho (up, down):  1.389E-02 0.000E+00

     add environment contribution to local potential
     polarization accuracy = 8.4E-12, # of iterations =  66

     total cpu time spent up to now is       98.8 secs

     total energy              =    -621.97507834 Ry
     Harris-Foulkes estimate   =    -657.34838417 Ry
     estimated scf accuracy    <      14.73371406 Ry
     electrostatic embedding   =      -0.00374252 Ry
     correction to one-el term =      31.14776178 Ry

     iteration #  3     ecut=    35.00 Ry     beta=0.70
     Davidson diagonalization with overlap
     ethr =  2.00E-03,  avg # of iterations =  9.0

     negative rho (up, down):  1.559E-02 0.000E+00

     add environment contribution to local potential
     polarization accuracy = 8.9E-12, # of iterations =  51

     total cpu time spent up to now is      134.5 secs

     total energy              =    -622.99621917 Ry
     Harris-Foulkes estimate   =    -653.87121253 Ry
     estimated scf accuracy    <      25.24333586 Ry
     electrostatic embedding   =      -0.00660561 Ry
     correction to one-el term =      28.13956834 Ry

     iteration #  4     ecut=    35.00 Ry     beta=0.70
     Davidson diagonalization with overlap
     ethr =  2.00E-03,  avg # of iterations =  8.0

     negative rho (up, down):  7.595E-03 0.000E+00

     add environment contribution to local potential
     polarization accuracy = 8.6E-12, # of iterations =  55

     total cpu time spent up to now is      172.5 secs

     total energy              =    -623.89365542 Ry
     Harris-Foulkes estimate   =    -653.20743930 Ry
     estimated scf accuracy    <       6.45162253 Ry
     electrostatic embedding   =      -0.00087078 Ry
     correction to one-el term =      28.65143130 Ry

     iteration #  5     ecut=    35.00 Ry     beta=0.70
     Davidson diagonalization with overlap
     ethr =  2.00E-03,  avg # of iterations =  3.0

     negative rho (up, down):  6.534E-03 0.000E+00

     add environment contribution to local potential
     polarization accuracy = 8.9E-12, # of iterations =  57

     total cpu time spent up to now is      210.8 secs

     total energy              =    -624.06569369 Ry
     Harris-Foulkes estimate   =    -652.08217165 Ry
     estimated scf accuracy    <       0.47849921 Ry
     electrostatic embedding   =      -0.00239226 Ry
     correction to one-el term =      27.88738913 Ry

     iteration #  6     ecut=    35.00 Ry     beta=0.70
     Davidson diagonalization with overlap
     ethr =  5.32E-04,  avg # of iterations =  5.0

     negative rho (up, down):  5.100E-03 0.000E+00

     add environment contribution to local potential
     polarization accuracy = 8.6E-12, # of iterations =  53

     total cpu time spent up to now is      247.7 secs

     total energy              =    -624.11959030 Ry
     Harris-Foulkes estimate   =    -651.52715879 Ry
     estimated scf accuracy    <       0.15454485 Ry
     electrostatic embedding   =      -0.00299359 Ry
     correction to one-el term =      27.37488156 Ry

     iteration #  7     ecut=    35.00 Ry     beta=0.70
     Davidson diagonalization with overlap
     ethr =  1.72E-04,  avg # of iterations =  1.0

     negative rho (up, down):  1.813E-03 0.000E+00

     total cpu time spent up to now is      253.9 secs

     End of self-consistent calculation

          k = 0.0000 0.0000 0.0000 (  7286 PWs)   bands (ev):

   -29.1368 -15.2559 -13.3969 -12.6351 -11.9145 -11.8883 -11.8351 -11.1079
   -10.9571 -10.1493 -10.0197  -9.9200  -9.6292  -9.6189  -9.5180  -9.3961
    -8.7549  -8.7202  -8.6788  -8.4664  -8.3677  -8.2917  -8.2459  -8.2294
    -8.2051  -8.0397  -7.9970  -7.9308  -7.8354  -7.5988  -7.4893  -6.7416
    -6.5971  -6.5175  -6.1587  -6.1121  -5.9435  -5.9025  -5.7831  -5.5795
    -5.4136  -5.3646  -5.1498  -5.1421  -5.0544  -5.0516  -4.8702  -3.8492
    -3.4547  -3.3039  -2.9261  -2.3335  -2.2158  -1.2993  -0.9136  -0.7980
    -0.6171  -0.0229   0.5880   0.6334   0.8801   1.2511   2.1806   2.3838
     2.4014   2.7541   3.0056   3.2283   3.5297   3.5842   4.0244   4.0422
     4.3973   4.6004   4.8915   5.0764   5.2980   5.3055   5.4008   5.4067

     the Fermi energy is    -4.9713 ev

!    total energy              =    -624.10947566 Ry
     Harris-Foulkes estimate   =    -651.78680026 Ry
     estimated scf accuracy    <       0.03727847 Ry

     The total energy is the sum of the following terms:

     one-electron contribution =   -3994.84099517 Ry
     hartree contribution      =    2033.16000259 Ry
     xc contribution           =    -263.27372189 Ry
     ewald contribution        =    1573.20467954 Ry
     smearing contrib. (-TS)   =      -0.00401440 Ry
     electrostatic embedding   =      -0.00304999 Ry
     correction to one-el term =      27.64762366 Ry

     convergence has been achieved in   7 iterations

     negative rho (up, down):  1.813E-03 0.000E+00

     Forces acting on atoms (cartesian axes, Ry/au):

     atom    1 type  1   force =     0.00009321   -0.00761531    0.02909000
     atom    2 type  2   force =     0.00003534    0.00319691    0.00045077
     atom    3 type  3   force =    -0.00673089    0.00439350    0.04664860
     atom    4 type  3   force =     0.00785909    0.00441372    0.04811677
     atom    5 type  3   force =    -0.00216611    0.01347160    0.00705805
     atom    6 type  3   force =     0.00090536    0.02026300    0.04280971
     atom    7 type  3   force =    -0.00219660   -0.01665320   -0.04795019
     atom    8 type  3   force =     0.00096327   -0.01730541   -0.03335215
     atom    9 type  3   force =     0.03469858   -0.00216427   -0.04679822
     atom   10 type  3   force =    -0.03346126   -0.00200054   -0.04607336

     Total force =     0.136643     Total SCF correction =     0.292213
     SCF correction compared to forces is large: reduce conv_thr to get better values

     Writing output data file pwscf.save

     init_run     :     19.61s CPU     20.04s WALL (       1 calls)
     electrons    :    227.78s CPU    233.52s WALL (       1 calls)
     forces       :      7.81s CPU      8.13s WALL (       1 calls)

     Called by init_run:
     wfcinit      :      0.67s CPU      0.59s WALL (       1 calls)
     potinit      :      3.35s CPU      3.45s WALL (       1 calls)

     Called by electrons:
     c_bands      :     17.69s CPU     13.93s WALL (       7 calls)
     sum_band     :     12.68s CPU     12.73s WALL (       7 calls)
     v_of_rho     :      4.63s CPU      5.05s WALL (       8 calls)
     newd         :      7.71s CPU      9.63s WALL (       8 calls)
     mix_rho      :      0.40s CPU      0.57s WALL (       7 calls)

     Called by c_bands:
     init_us_2    :      0.14s CPU      0.17s WALL (      15 calls)
     regterg      :     16.82s CPU     13.02s WALL (       7 calls)

     Called by sum_band:
     sum_band:bec :      0.00s CPU      0.00s WALL (       7 calls)
     addusdens    :     10.07s CPU     10.12s WALL (       7 calls)

     Called by *egterg:
     h_psi        :     11.02s CPU     10.07s WALL (      48 calls)
     s_psi        :      1.22s CPU      0.36s WALL (      48 calls)
     g_psi        :      0.12s CPU      0.12s WALL (      40 calls)
     rdiaghg      :      0.85s CPU      0.80s WALL (      47 calls)

     Called by h_psi:
     h_psi:pot    :     10.92s CPU      9.97s WALL (      48 calls)
     h_psi:calbec :      0.65s CPU      0.34s WALL (      48 calls)
     vloc_psi     :      9.02s CPU      9.26s WALL (      48 calls)
     add_vuspsi   :      1.25s CPU      0.36s WALL (      48 calls)

     General routines
     calbec       :      0.95s CPU      0.50s WALL (      59 calls)
     fft          :     30.13s CPU     30.51s WALL (    1532 calls)
     ffts         :      0.10s CPU      0.11s WALL (      15 calls)
     fftw         :      8.31s CPU      8.51s WALL (    1958 calls)
     interpolate  :      0.50s CPU      0.57s WALL (      15 calls)
     davcio       :      0.03s CPU      0.04s WALL (       1 calls)


     Environ routines
     calc_eelect  :      0.01s CPU      0.02s WALL (      14 calls)
     calc_velect  :    180.80s CPU    187.73s WALL (      12 calls)
     dielectric   :      0.52s CPU      0.58s WALL (       8 calls)
     calc_felect  :      0.68s CPU      0.69s WALL (       1 calls)

     PWSCF        :  4m15.71s CPU     4m22.35s WALL


   This run was terminated on:  12: 3:34  10Oct2017            

=------------------------------------------------------------------------------=
   JOB DONE.
=------------------------------------------------------------------------------=

%%%% IONS %%%%%%%%%%%%%%%%%%%%%%%%%%%%%%%%%%%%%%%%%%%%%%%%%%%%%%%%%%%%%%%%%%%%%%
 number of ions             =         10
 ionic center of charge     =      0.3882415     0.3750182     0.7201831
 total ionic charge         =    -90.0000000
 ionic dipole               =      0.0000000     0.0000000     0.0000000
 ionic quadrupole (pc)      =   -730.5101255  -614.6110457  -876.7220256
 ionic quadrupole (gauss)   =   -741.7601255  -625.8610457  -887.9720256
 ion   1 type =  1 coordinates =      5.3350841     4.6467234    12.9010299
 ion   2 type =  2 coordinates =      5.3350096     4.6196233    15.0798543
 ion   3 type =  3 coordinates =      8.0613271     0.0980580     8.9921429
 ion   4 type =  3 coordinates =      2.6089894     0.0980583     8.9921406
 ion   5 type =  3 coordinates =      0.0000366     4.7208463     8.9687569
 ion   6 type =  3 coordinates =      5.3351596     4.7216127     9.3801964
 ion   7 type =  3 coordinates =      0.0000411     7.8029520     4.6046265
 ion   8 type =  3 coordinates =      5.3351612     7.6977491     4.7534894
 ion   9 type =  3 coordinates =      2.6978606     3.1521739     4.6884123
 ion  10 type =  3 coordinates =      7.9724637     3.1521745     4.6884152

%%%% SYSTEM %%%%%%%%%%%%%%%%%%%%%%%%%%%%%%%%%%%%%%%%%%%%%%%%%%%%%%%%%%%%%%%%%%%%
 system is built from all present ionic types
 system defined dimension   =  0 
 system defined axis        =  3 
 system center              =      0.3882415     0.3750182     0.7201831 
 system width               =      1.5145225 

%%%% ELECTRONS %%%%%%%%%%%%%%%%%%%%%%%%%%%%%%%%%%%%%%%%%%%%%%%%%%%%%%%%%%%%%%%%%
 number of electrons        =         90
 total electronic charge    =     90.0000000
 number of spin components  =  1

%%%% BOUNDARY %%%%%%%%%%%%%%%%%%%%%%%%%%%%%%%%%%%%%%%%%%%%%%%%%%%%%%%%%%%%%%%%%%
 boundary mode              = electronic           
 boundary is built as a function of a smooth density
 function type              =  1 
 using the optimal SCCS function with parameters 
 rhomax                     =      0.0050000 
 rhomin                     =      0.0001000 

%%%% DIELECTRIC %%%%%%%%%%%%%%%%%%%%%%%%%%%%%%%%%%%%%%%%%%%%%%%%%%%%%%%%%%%%%%%%%
 dielectric build on homogeneous background
 environment bulk permitt.  =    100.0000000 
 dielectric flags
 need gradient              =  F 
 need factor depend. sqrt   =  F 
 need gradient of logarithm =  T 

%%%% COMPUTE ELECTROSTATIC POTENTIAL %%%%%%%%%%%%%%%%%%%%%%%%%%%%%%%%%%%%%%%%%%%
 Starting from polarization: rhoiter =      0.000000 jellium =      0.000000
 Iteration #          1
 delta_qm =   0.126007E-02 delta_en =   0.153371E-05 tol =   0.100000E-10
 Iteration #          2
 delta_qm =   0.844624E-03 delta_en =   0.102804E-05 tol =   0.100000E-10
 Iteration #          3
 delta_qm =   0.591290E-03 delta_en =   0.719695E-06 tol =   0.100000E-10
 Iteration #          4
 delta_qm =   0.394739E-03 delta_en =   0.480462E-06 tol =   0.100000E-10
 Iteration #          5
 delta_qm =   0.330868E-03 delta_en =   0.402720E-06 tol =   0.100000E-10
 Iteration #          6
 delta_qm =   0.281598E-03 delta_en =   0.342751E-06 tol =   0.100000E-10
 Iteration #          7
 delta_qm =   0.214301E-03 delta_en =   0.260839E-06 tol =   0.100000E-10
 Iteration #          8
 delta_qm =   0.149011E-03 delta_en =   0.181371E-06 tol =   0.100000E-10
 Iteration #          9
 delta_qm =   0.103716E-03 delta_en =   0.126239E-06 tol =   0.100000E-10
 Iteration #         10
 delta_qm =   0.799830E-04 delta_en =   0.973522E-07 tol =   0.100000E-10
 Iteration #         11
 delta_qm =   0.663357E-04 delta_en =   0.807413E-07 tol =   0.100000E-10
 Iteration #         12
 delta_qm =   0.536468E-04 delta_en =   0.652969E-07 tol =   0.100000E-10
 Iteration #         13
 delta_qm =   0.404225E-04 delta_en =   0.492007E-07 tol =   0.100000E-10
 Iteration #         14
 delta_qm =   0.285371E-04 delta_en =   0.347343E-07 tol =   0.100000E-10
 Iteration #         15
 delta_qm =   0.198572E-04 delta_en =   0.241694E-07 tol =   0.100000E-10
 Iteration #         16
 delta_qm =   0.147625E-04 delta_en =   0.179683E-07 tol =   0.100000E-10
 Iteration #         17
 delta_qm =   0.119248E-04 delta_en =   0.145144E-07 tol =   0.100000E-10
 Iteration #         18
 delta_qm =   0.975042E-05 delta_en =   0.118678E-07 tol =   0.100000E-10
 Iteration #         19
 delta_qm =   0.761090E-05 delta_en =   0.926369E-08 tol =   0.100000E-10
 Iteration #         20
 delta_qm =   0.559983E-05 delta_en =   0.681590E-08 tol =   0.100000E-10
 Iteration #         21
 delta_qm =   0.398380E-05 delta_en =   0.484893E-08 tol =   0.100000E-10
 Iteration #         22
 delta_qm =   0.290081E-05 delta_en =   0.353075E-08 tol =   0.100000E-10
 Iteration #         23
 delta_qm =   0.225655E-05 delta_en =   0.274658E-08 tol =   0.100000E-10
 Iteration #         24
 delta_qm =   0.182632E-05 delta_en =   0.222292E-08 tol =   0.100000E-10
 Iteration #         25
 delta_qm =   0.145645E-05 delta_en =   0.177274E-08 tol =   0.100000E-10
 Iteration #         26
 delta_qm =   0.111525E-05 delta_en =   0.135744E-08 tol =   0.100000E-10
 Iteration #         27
 delta_qm =   0.827867E-06 delta_en =   0.100765E-08 tol =   0.100000E-10
 Iteration #         28
 delta_qm =   0.617349E-06 delta_en =   0.751414E-09 tol =   0.100000E-10
 Iteration #         29
 delta_qm =   0.478488E-06 delta_en =   0.582396E-09 tol =   0.100000E-10
 Iteration #         30
 delta_qm =   0.383347E-06 delta_en =   0.466595E-09 tol =   0.100000E-10
 Iteration #         31
 delta_qm =   0.306299E-06 delta_en =   0.372815E-09 tol =   0.100000E-10
 Iteration #         32
 delta_qm =   0.237695E-06 delta_en =   0.289314E-09 tol =   0.100000E-10
 Iteration #         33
 delta_qm =   0.179153E-06 delta_en =   0.218058E-09 tol =   0.100000E-10
 Iteration #         34
 delta_qm =   0.134672E-06 delta_en =   0.163917E-09 tol =   0.100000E-10
 Iteration #         35
 delta_qm =   0.104883E-06 delta_en =   0.127660E-09 tol =   0.100000E-10
 Iteration #         36
 delta_qm =   0.857289E-07 delta_en =   0.104346E-09 tol =   0.100000E-10
 Iteration #         37
 delta_qm =   0.716756E-07 delta_en =   0.872408E-10 tol =   0.100000E-10
 Iteration #         38
 delta_qm =   0.593664E-07 delta_en =   0.722584E-10 tol =   0.100000E-10
 Iteration #         39
 delta_qm =   0.480221E-07 delta_en =   0.584507E-10 tol =   0.100000E-10
 Iteration #         40
 delta_qm =   0.380655E-07 delta_en =   0.463319E-10 tol =   0.100000E-10
 Iteration #         41
 delta_qm =   0.299705E-07 delta_en =   0.364789E-10 tol =   0.100000E-10
 Iteration #         42
 delta_qm =   0.237856E-07 delta_en =   0.289509E-10 tol =   0.100000E-10
 Iteration #         43
 delta_qm =   0.191647E-07 delta_en =   0.233265E-10 tol =   0.100000E-10
 Iteration #         44
 delta_qm =   0.156347E-07 delta_en =   0.190299E-10 tol =   0.100000E-10
 Iteration #         45
 delta_qm =   0.128222E-07 delta_en =   0.156067E-10 tol =   0.100000E-10
 Iteration #         46
 delta_qm =   0.105102E-07 delta_en =   0.127926E-10 tol =   0.100000E-10
 Iteration #         47
 delta_qm =   0.858612E-08 delta_en =   0.104507E-10 tol =   0.100000E-10
 Iteration #         48
 delta_qm =   0.698323E-08 delta_en =   0.849971E-11 tol =   0.100000E-10
 Charges are converged, exit!

%%%% ELECTRONS %%%%%%%%%%%%%%%%%%%%%%%%%%%%%%%%%%%%%%%%%%%%%%%%%%%%%%%%%%%%%%%%%
 number of electrons        =         90
 total electronic charge    =     90.0000000
 number of spin components  =  1

%%%% BOUNDARY %%%%%%%%%%%%%%%%%%%%%%%%%%%%%%%%%%%%%%%%%%%%%%%%%%%%%%%%%%%%%%%%%%
 boundary mode              = electronic           
 boundary is built as a function of a smooth density
 function type              =  1 
 using the optimal SCCS function with parameters 
 rhomax                     =      0.0050000 
 rhomin                     =      0.0001000 

%%%% DIELECTRIC %%%%%%%%%%%%%%%%%%%%%%%%%%%%%%%%%%%%%%%%%%%%%%%%%%%%%%%%%%%%%%%%%
 dielectric build on homogeneous background
 environment bulk permitt.  =    100.0000000 
 dielectric flags
 need gradient              =  F 
 need factor depend. sqrt   =  F 
 need gradient of logarithm =  T 

%%%% COMPUTE ELECTROSTATIC POTENTIAL %%%%%%%%%%%%%%%%%%%%%%%%%%%%%%%%%%%%%%%%%%%
 Starting from polarization: rhoiter =      0.283898 jellium =      0.000000
 Iteration #          1
 delta_qm =   0.971293E-03 delta_en =   0.118222E-05 tol =   0.100000E-10
 Iteration #          2
 delta_qm =   0.523636E-03 delta_en =   0.637350E-06 tol =   0.100000E-10
 Iteration #          3
 delta_qm =   0.337615E-03 delta_en =   0.410932E-06 tol =   0.100000E-10
 Iteration #          4
 delta_qm =   0.264158E-03 delta_en =   0.321523E-06 tol =   0.100000E-10
 Iteration #          5
 delta_qm =   0.217356E-03 delta_en =   0.264558E-06 tol =   0.100000E-10
 Iteration #          6
 delta_qm =   0.172323E-03 delta_en =   0.209745E-06 tol =   0.100000E-10
 Iteration #          7
 delta_qm =   0.129507E-03 delta_en =   0.157631E-06 tol =   0.100000E-10
 Iteration #          8
 delta_qm =   0.936724E-04 delta_en =   0.114014E-06 tol =   0.100000E-10
 Iteration #          9
 delta_qm =   0.675664E-04 delta_en =   0.822392E-07 tol =   0.100000E-10
 Iteration #         10
 delta_qm =   0.505055E-04 delta_en =   0.614734E-07 tol =   0.100000E-10
 Iteration #         11
 delta_qm =   0.393028E-04 delta_en =   0.478379E-07 tol =   0.100000E-10
 Iteration #         12
 delta_qm =   0.308242E-04 delta_en =   0.375180E-07 tol =   0.100000E-10
 Iteration #         13
 delta_qm =   0.236159E-04 delta_en =   0.287444E-07 tol =   0.100000E-10
 Iteration #         14
 delta_qm =   0.175541E-04 delta_en =   0.213661E-07 tol =   0.100000E-10
 Iteration #         15
 delta_qm =   0.129072E-04 delta_en =   0.157102E-07 tol =   0.100000E-10
 Iteration #         16
 delta_qm =   0.972511E-05 delta_en =   0.118370E-07 tol =   0.100000E-10
 Iteration #         17
 delta_qm =   0.767483E-05 delta_en =   0.934151E-08 tol =   0.100000E-10
 Iteration #         18
 delta_qm =   0.627895E-05 delta_en =   0.764250E-08 tol =   0.100000E-10
 Iteration #         19
 delta_qm =   0.523180E-05 delta_en =   0.636794E-08 tol =   0.100000E-10
 Iteration #         20
 delta_qm =   0.444690E-05 delta_en =   0.541260E-08 tol =   0.100000E-10
 Iteration #         21
 delta_qm =   0.391380E-05 delta_en =   0.476372E-08 tol =   0.100000E-10
 Iteration #         22
 delta_qm =   0.358107E-05 delta_en =   0.435874E-08 tol =   0.100000E-10
 Iteration #         23
 delta_qm =   0.335433E-05 delta_en =   0.408276E-08 tol =   0.100000E-10
 Iteration #         24
 delta_qm =   0.315349E-05 delta_en =   0.383830E-08 tol =   0.100000E-10
 Iteration #         25
 delta_qm =   0.294147E-05 delta_en =   0.358025E-08 tol =   0.100000E-10
 Iteration #         26
 delta_qm =   0.271422E-05 delta_en =   0.330365E-08 tol =   0.100000E-10
 Iteration #         27
 delta_qm =   0.248100E-05 delta_en =   0.301978E-08 tol =   0.100000E-10
 Iteration #         28
 delta_qm =   0.225167E-05 delta_en =   0.274065E-08 tol =   0.100000E-10
 Iteration #         29
 delta_qm =   0.203242E-05 delta_en =   0.247379E-08 tol =   0.100000E-10
 Iteration #         30
 delta_qm =   0.182621E-05 delta_en =   0.222280E-08 tol =   0.100000E-10
 Iteration #         31
 delta_qm =   0.163434E-05 delta_en =   0.198925E-08 tol =   0.100000E-10
 Iteration #         32
 delta_qm =   0.145737E-05 delta_en =   0.177385E-08 tol =   0.100000E-10
 Iteration #         33
 delta_qm =   0.129540E-05 delta_en =   0.157671E-08 tol =   0.100000E-10
 Iteration #         34
 delta_qm =   0.114806E-05 delta_en =   0.139737E-08 tol =   0.100000E-10
 Iteration #         35
 delta_qm =   0.101459E-05 delta_en =   0.123492E-08 tol =   0.100000E-10
 Iteration #         36
 delta_qm =   0.894034E-06 delta_en =   0.108818E-08 tol =   0.100000E-10
 Iteration #         37
 delta_qm =   0.785416E-06 delta_en =   0.955978E-09 tol =   0.100000E-10
 Iteration #         38
 delta_qm =   0.687844E-06 delta_en =   0.837217E-09 tol =   0.100000E-10
 Iteration #         39
 delta_qm =   0.600512E-06 delta_en =   0.730920E-09 tol =   0.100000E-10
 Iteration #         40
 delta_qm =   0.522674E-06 delta_en =   0.636178E-09 tol =   0.100000E-10
 Iteration #         41
 delta_qm =   0.453603E-06 delta_en =   0.552108E-09 tol =   0.100000E-10
 Iteration #         42
 delta_qm =   0.392580E-06 delta_en =   0.477833E-09 tol =   0.100000E-10
 Iteration #         43
 delta_qm =   0.338890E-06 delta_en =   0.412483E-09 tol =   0.100000E-10
 Iteration #         44
 delta_qm =   0.291833E-06 delta_en =   0.355207E-09 tol =   0.100000E-10
 Iteration #         45
 delta_qm =   0.250735E-06 delta_en =   0.305185E-09 tol =   0.100000E-10
 Iteration #         46
 delta_qm =   0.214957E-06 delta_en =   0.261637E-09 tol =   0.100000E-10
 Iteration #         47
 delta_qm =   0.183902E-06 delta_en =   0.223838E-09 tol =   0.100000E-10
 Iteration #         48
 delta_qm =   0.157018E-06 delta_en =   0.191117E-09 tol =   0.100000E-10
 Iteration #         49
 delta_qm =   0.133805E-06 delta_en =   0.162862E-09 tol =   0.100000E-10
 Iteration #         50
 delta_qm =   0.113807E-06 delta_en =   0.138522E-09 tol =   0.100000E-10
 Iteration #         51
 delta_qm =   0.966210E-07 delta_en =   0.117603E-09 tol =   0.100000E-10
 Iteration #         52
 delta_qm =   0.818840E-07 delta_en =   0.996660E-10 tol =   0.100000E-10
 Iteration #         53
 delta_qm =   0.692756E-07 delta_en =   0.843196E-10 tol =   0.100000E-10
 Iteration #         54
 delta_qm =   0.585120E-07 delta_en =   0.712186E-10 tol =   0.100000E-10
 Iteration #         55
 delta_qm =   0.493425E-07 delta_en =   0.600578E-10 tol =   0.100000E-10
 Iteration #         56
 delta_qm =   0.415465E-07 delta_en =   0.505688E-10 tol =   0.100000E-10
 Iteration #         57
 delta_qm =   0.349307E-07 delta_en =   0.425163E-10 tol =   0.100000E-10
 Iteration #         58
 delta_qm =   0.293263E-07 delta_en =   0.356948E-10 tol =   0.100000E-10
 Iteration #         59
 delta_qm =   0.245865E-07 delta_en =   0.299258E-10 tol =   0.100000E-10
 Iteration #         60
 delta_qm =   0.205844E-07 delta_en =   0.250545E-10 tol =   0.100000E-10
 Iteration #         61
 delta_qm =   0.172102E-07 delta_en =   0.209476E-10 tol =   0.100000E-10
 Iteration #         62
 delta_qm =   0.143697E-07 delta_en =   0.174903E-10 tol =   0.100000E-10
 Iteration #         63
 delta_qm =   0.119821E-07 delta_en =   0.145841E-10 tol =   0.100000E-10
 Iteration #         64
 delta_qm =   0.997794E-08 delta_en =   0.121448E-10 tol =   0.100000E-10
 Iteration #         65
 delta_qm =   0.829819E-08 delta_en =   0.101002E-10 tol =   0.100000E-10
 Iteration #         66
 delta_qm =   0.689232E-08 delta_en =   0.838907E-11 tol =   0.100000E-10
 Charges are converged, exit!

%%%% ELECTRONS %%%%%%%%%%%%%%%%%%%%%%%%%%%%%%%%%%%%%%%%%%%%%%%%%%%%%%%%%%%%%%%%%
 number of electrons        =         90
 total electronic charge    =     90.0000000
 number of spin components  =  1

%%%% BOUNDARY %%%%%%%%%%%%%%%%%%%%%%%%%%%%%%%%%%%%%%%%%%%%%%%%%%%%%%%%%%%%%%%%%%
 boundary mode              = electronic           
 boundary is built as a function of a smooth density
 function type              =  1 
 using the optimal SCCS function with parameters 
 rhomax                     =      0.0050000 
 rhomin                     =      0.0001000 

%%%% DIELECTRIC %%%%%%%%%%%%%%%%%%%%%%%%%%%%%%%%%%%%%%%%%%%%%%%%%%%%%%%%%%%%%%%%%
 dielectric build on homogeneous background
 environment bulk permitt.  =    100.0000000 
 dielectric flags
 need gradient              =  F 
 need factor depend. sqrt   =  F 
 need gradient of logarithm =  T 

%%%% COMPUTE ELECTROSTATIC POTENTIAL %%%%%%%%%%%%%%%%%%%%%%%%%%%%%%%%%%%%%%%%%%%
 Starting from polarization: rhoiter =      0.282397 jellium =      0.000000
 Iteration #          1
 delta_qm =   0.172788E-03 delta_en =   0.210311E-06 tol =   0.100000E-10
 Iteration #          2
 delta_qm =   0.967198E-04 delta_en =   0.117724E-06 tol =   0.100000E-10
 Iteration #          3
 delta_qm =   0.635815E-04 delta_en =   0.773889E-07 tol =   0.100000E-10
 Iteration #          4
 delta_qm =   0.496691E-04 delta_en =   0.604553E-07 tol =   0.100000E-10
 Iteration #          5
 delta_qm =   0.401977E-04 delta_en =   0.489270E-07 tol =   0.100000E-10
 Iteration #          6
 delta_qm =   0.312178E-04 delta_en =   0.379971E-07 tol =   0.100000E-10
 Iteration #          7
 delta_qm =   0.230658E-04 delta_en =   0.280748E-07 tol =   0.100000E-10
 Iteration #          8
 delta_qm =   0.165950E-04 delta_en =   0.201988E-07 tol =   0.100000E-10
 Iteration #          9
 delta_qm =   0.121005E-04 delta_en =   0.147283E-07 tol =   0.100000E-10
 Iteration #         10
 delta_qm =   0.920129E-05 delta_en =   0.111995E-07 tol =   0.100000E-10
 Iteration #         11
 delta_qm =   0.720764E-05 delta_en =   0.877286E-08 tol =   0.100000E-10
 Iteration #         12
 delta_qm =   0.561796E-05 delta_en =   0.683796E-08 tol =   0.100000E-10
 Iteration #         13
 delta_qm =   0.426334E-05 delta_en =   0.518917E-08 tol =   0.100000E-10
 Iteration #         14
 delta_qm =   0.315830E-05 delta_en =   0.384417E-08 tol =   0.100000E-10
 Iteration #         15
 delta_qm =   0.233746E-05 delta_en =   0.284506E-08 tol =   0.100000E-10
 Iteration #         16
 delta_qm =   0.177561E-05 delta_en =   0.216120E-08 tol =   0.100000E-10
 Iteration #         17
 delta_qm =   0.139176E-05 delta_en =   0.169399E-08 tol =   0.100000E-10
 Iteration #         18
 delta_qm =   0.110541E-05 delta_en =   0.134547E-08 tol =   0.100000E-10
 Iteration #         19
 delta_qm =   0.876416E-06 delta_en =   0.106674E-08 tol =   0.100000E-10
 Iteration #         20
 delta_qm =   0.698190E-06 delta_en =   0.849809E-09 tol =   0.100000E-10
 Iteration #         21
 delta_qm =   0.572048E-06 delta_en =   0.696275E-09 tol =   0.100000E-10
 Iteration #         22
 delta_qm =   0.489574E-06 delta_en =   0.595890E-09 tol =   0.100000E-10
 Iteration #         23
 delta_qm =   0.433155E-06 delta_en =   0.527220E-09 tol =   0.100000E-10
 Iteration #         24
 delta_qm =   0.387289E-06 delta_en =   0.471393E-09 tol =   0.100000E-10
 Iteration #         25
 delta_qm =   0.344717E-06 delta_en =   0.419576E-09 tol =   0.100000E-10
 Iteration #         26
 delta_qm =   0.304396E-06 delta_en =   0.370499E-09 tol =   0.100000E-10
 Iteration #         27
 delta_qm =   0.267409E-06 delta_en =   0.325479E-09 tol =   0.100000E-10
 Iteration #         28
 delta_qm =   0.234505E-06 delta_en =   0.285430E-09 tol =   0.100000E-10
 Iteration #         29
 delta_qm =   0.205554E-06 delta_en =   0.250192E-09 tol =   0.100000E-10
 Iteration #         30
 delta_qm =   0.179983E-06 delta_en =   0.219069E-09 tol =   0.100000E-10
 Iteration #         31
 delta_qm =   0.157268E-06 delta_en =   0.191421E-09 tol =   0.100000E-10
 Iteration #         32
 delta_qm =   0.137100E-06 delta_en =   0.166872E-09 tol =   0.100000E-10
 Iteration #         33
 delta_qm =   0.119302E-06 delta_en =   0.145209E-09 tol =   0.100000E-10
 Iteration #         34
 delta_qm =   0.103706E-06 delta_en =   0.126226E-09 tol =   0.100000E-10
 Iteration #         35
 delta_qm =   0.900910E-07 delta_en =   0.109655E-09 tol =   0.100000E-10
 Iteration #         36
 delta_qm =   0.782042E-07 delta_en =   0.951871E-10 tol =   0.100000E-10
 Iteration #         37
 delta_qm =   0.677992E-07 delta_en =   0.825225E-10 tol =   0.100000E-10
 Iteration #         38
 delta_qm =   0.586680E-07 delta_en =   0.714085E-10 tol =   0.100000E-10
 Iteration #         39
 delta_qm =   0.506470E-07 delta_en =   0.616456E-10 tol =   0.100000E-10
 Iteration #         40
 delta_qm =   0.436079E-07 delta_en =   0.530779E-10 tol =   0.100000E-10
 Iteration #         41
 delta_qm =   0.374463E-07 delta_en =   0.455781E-10 tol =   0.100000E-10
 Iteration #         42
 delta_qm =   0.320717E-07 delta_en =   0.390365E-10 tol =   0.100000E-10
 Iteration #         43
 delta_qm =   0.274026E-07 delta_en =   0.333534E-10 tol =   0.100000E-10
 Iteration #         44
 delta_qm =   0.233627E-07 delta_en =   0.284361E-10 tol =   0.100000E-10
 Iteration #         45
 delta_qm =   0.198801E-07 delta_en =   0.241973E-10 tol =   0.100000E-10
 Iteration #         46
 delta_qm =   0.168872E-07 delta_en =   0.205545E-10 tol =   0.100000E-10
 Iteration #         47
 delta_qm =   0.143213E-07 delta_en =   0.174313E-10 tol =   0.100000E-10
 Iteration #         48
 delta_qm =   0.121254E-07 delta_en =   0.147586E-10 tol =   0.100000E-10
 Iteration #         49
 delta_qm =   0.102491E-07 delta_en =   0.124748E-10 tol =   0.100000E-10
 Iteration #         50
 delta_qm =   0.864854E-08 delta_en =   0.105267E-10 tol =   0.100000E-10
 Iteration #         51
 delta_qm =   0.728572E-08 delta_en =   0.886790E-11 tol =   0.100000E-10
 Charges are converged, exit!

%%%% ELECTRONS %%%%%%%%%%%%%%%%%%%%%%%%%%%%%%%%%%%%%%%%%%%%%%%%%%%%%%%%%%%%%%%%%
 number of electrons        =         90
 total electronic charge    =     90.0000000
 number of spin components  =  1

%%%% BOUNDARY %%%%%%%%%%%%%%%%%%%%%%%%%%%%%%%%%%%%%%%%%%%%%%%%%%%%%%%%%%%%%%%%%%
 boundary mode              = electronic           
 boundary is built as a function of a smooth density
 function type              =  1 
 using the optimal SCCS function with parameters 
 rhomax                     =      0.0050000 
 rhomin                     =      0.0001000 

%%%% DIELECTRIC %%%%%%%%%%%%%%%%%%%%%%%%%%%%%%%%%%%%%%%%%%%%%%%%%%%%%%%%%%%%%%%%%
 dielectric build on homogeneous background
 environment bulk permitt.  =    100.0000000 
 dielectric flags
 need gradient              =  F 
 need factor depend. sqrt   =  F 
 need gradient of logarithm =  T 

%%%% COMPUTE ELECTROSTATIC POTENTIAL %%%%%%%%%%%%%%%%%%%%%%%%%%%%%%%%%%%%%%%%%%%
 Starting from polarization: rhoiter =      0.278519 jellium =      0.000000
 Iteration #          1
 delta_qm =   0.182618E-03 delta_en =   0.222276E-06 tol =   0.100000E-10
 Iteration #          2
 delta_qm =   0.111815E-03 delta_en =   0.136097E-06 tol =   0.100000E-10
 Iteration #          3
 delta_qm =   0.742374E-04 delta_en =   0.903589E-07 tol =   0.100000E-10
 Iteration #          4
 delta_qm =   0.550951E-04 delta_en =   0.670596E-07 tol =   0.100000E-10
 Iteration #          5
 delta_qm =   0.431561E-04 delta_en =   0.525279E-07 tol =   0.100000E-10
 Iteration #          6
 delta_qm =   0.336984E-04 delta_en =   0.410163E-07 tol =   0.100000E-10
 Iteration #          7
 delta_qm =   0.257471E-04 delta_en =   0.313383E-07 tol =   0.100000E-10
 Iteration #          8
 delta_qm =   0.193497E-04 delta_en =   0.235517E-07 tol =   0.100000E-10
 Iteration #          9
 delta_qm =   0.144985E-04 delta_en =   0.176471E-07 tol =   0.100000E-10
 Iteration #         10
 delta_qm =   0.109480E-04 delta_en =   0.133254E-07 tol =   0.100000E-10
 Iteration #         11
 delta_qm =   0.834927E-05 delta_en =   0.101624E-07 tol =   0.100000E-10
 Iteration #         12
 delta_qm =   0.640910E-05 delta_en =   0.780091E-08 tol =   0.100000E-10
 Iteration #         13
 delta_qm =   0.494196E-05 delta_en =   0.601516E-08 tol =   0.100000E-10
 Iteration #         14
 delta_qm =   0.383639E-05 delta_en =   0.466950E-08 tol =   0.100000E-10
 Iteration #         15
 delta_qm =   0.301002E-05 delta_en =   0.366368E-08 tol =   0.100000E-10
 Iteration #         16
 delta_qm =   0.239286E-05 delta_en =   0.291250E-08 tol =   0.100000E-10
 Iteration #         17
 delta_qm =   0.193114E-05 delta_en =   0.235051E-08 tol =   0.100000E-10
 Iteration #         18
 delta_qm =   0.158950E-05 delta_en =   0.193468E-08 tol =   0.100000E-10
 Iteration #         19
 delta_qm =   0.134294E-05 delta_en =   0.163457E-08 tol =   0.100000E-10
 Iteration #         20
 delta_qm =   0.116715E-05 delta_en =   0.142061E-08 tol =   0.100000E-10
 Iteration #         21
 delta_qm =   0.103684E-05 delta_en =   0.126200E-08 tol =   0.100000E-10
 Iteration #         22
 delta_qm =   0.931029E-06 delta_en =   0.113321E-08 tol =   0.100000E-10
 Iteration #         23
 delta_qm =   0.837114E-06 delta_en =   0.101890E-08 tol =   0.100000E-10
 Iteration #         24
 delta_qm =   0.750076E-06 delta_en =   0.912964E-09 tol =   0.100000E-10
 Iteration #         25
 delta_qm =   0.669096E-06 delta_en =   0.814398E-09 tol =   0.100000E-10
 Iteration #         26
 delta_qm =   0.594588E-06 delta_en =   0.723709E-09 tol =   0.100000E-10
 Iteration #         27
 delta_qm =   0.526753E-06 delta_en =   0.641144E-09 tol =   0.100000E-10
 Iteration #         28
 delta_qm =   0.465347E-06 delta_en =   0.566402E-09 tol =   0.100000E-10
 Iteration #         29
 delta_qm =   0.409930E-06 delta_en =   0.498951E-09 tol =   0.100000E-10
 Iteration #         30
 delta_qm =   0.360092E-06 delta_en =   0.438290E-09 tol =   0.100000E-10
 Iteration #         31
 delta_qm =   0.315488E-06 delta_en =   0.383999E-09 tol =   0.100000E-10
 Iteration #         32
 delta_qm =   0.275774E-06 delta_en =   0.335662E-09 tol =   0.100000E-10
 Iteration #         33
 delta_qm =   0.240562E-06 delta_en =   0.292803E-09 tol =   0.100000E-10
 Iteration #         34
 delta_qm =   0.209420E-06 delta_en =   0.254898E-09 tol =   0.100000E-10
 Iteration #         35
 delta_qm =   0.181912E-06 delta_en =   0.221417E-09 tol =   0.100000E-10
 Iteration #         36
 delta_qm =   0.157641E-06 delta_en =   0.191874E-09 tol =   0.100000E-10
 Iteration #         37
 delta_qm =   0.136260E-06 delta_en =   0.165851E-09 tol =   0.100000E-10
 Iteration #         38
 delta_qm =   0.117474E-06 delta_en =   0.142985E-09 tol =   0.100000E-10
 Iteration #         39
 delta_qm =   0.101022E-06 delta_en =   0.122960E-09 tol =   0.100000E-10
 Iteration #         40
 delta_qm =   0.866668E-07 delta_en =   0.105487E-09 tol =   0.100000E-10
 Iteration #         41
 delta_qm =   0.741856E-07 delta_en =   0.902958E-10 tol =   0.100000E-10
 Iteration #         42
 delta_qm =   0.633704E-07 delta_en =   0.771320E-10 tol =   0.100000E-10
 Iteration #         43
 delta_qm =   0.540274E-07 delta_en =   0.657601E-10 tol =   0.100000E-10
 Iteration #         44
 delta_qm =   0.459782E-07 delta_en =   0.559629E-10 tol =   0.100000E-10
 Iteration #         45
 delta_qm =   0.390607E-07 delta_en =   0.475432E-10 tol =   0.100000E-10
 Iteration #         46
 delta_qm =   0.331290E-07 delta_en =   0.403233E-10 tol =   0.100000E-10
 Iteration #         47
 delta_qm =   0.280530E-07 delta_en =   0.341451E-10 tol =   0.100000E-10
 Iteration #         48
 delta_qm =   0.237178E-07 delta_en =   0.288683E-10 tol =   0.100000E-10
 Iteration #         49
 delta_qm =   0.200219E-07 delta_en =   0.243699E-10 tol =   0.100000E-10
 Iteration #         50
 delta_qm =   0.168769E-07 delta_en =   0.205419E-10 tol =   0.100000E-10
 Iteration #         51
 delta_qm =   0.142053E-07 delta_en =   0.172901E-10 tol =   0.100000E-10
 Iteration #         52
 delta_qm =   0.119399E-07 delta_en =   0.145328E-10 tol =   0.100000E-10
 Iteration #         53
 delta_qm =   0.100223E-07 delta_en =   0.121987E-10 tol =   0.100000E-10
 Iteration #         54
 delta_qm =   0.840175E-08 delta_en =   0.102263E-10 tol =   0.100000E-10
 Iteration #         55
 delta_qm =   0.703451E-08 delta_en =   0.856213E-11 tol =   0.100000E-10
 Charges are converged, exit!

%%%% ELECTRONS %%%%%%%%%%%%%%%%%%%%%%%%%%%%%%%%%%%%%%%%%%%%%%%%%%%%%%%%%%%%%%%%%
 number of electrons        =         90
 total electronic charge    =     90.0000000
 number of spin components  =  1

%%%% BOUNDARY %%%%%%%%%%%%%%%%%%%%%%%%%%%%%%%%%%%%%%%%%%%%%%%%%%%%%%%%%%%%%%%%%%
 boundary mode              = electronic           
 boundary is built as a function of a smooth density
 function type              =  1 
 using the optimal SCCS function with parameters 
 rhomax                     =      0.0050000 
 rhomin                     =      0.0001000 

%%%% DIELECTRIC %%%%%%%%%%%%%%%%%%%%%%%%%%%%%%%%%%%%%%%%%%%%%%%%%%%%%%%%%%%%%%%%%
 dielectric build on homogeneous background
 environment bulk permitt.  =    100.0000000 
 dielectric flags
 need gradient              =  F 
 need factor depend. sqrt   =  F 
 need gradient of logarithm =  T 

%%%% COMPUTE ELECTROSTATIC POTENTIAL %%%%%%%%%%%%%%%%%%%%%%%%%%%%%%%%%%%%%%%%%%%
 Starting from polarization: rhoiter =      0.269741 jellium =      0.000000
 Iteration #          1
 delta_qm =   0.120745E-03 delta_en =   0.146966E-06 tol =   0.100000E-10
 Iteration #          2
 delta_qm =   0.798827E-04 delta_en =   0.972302E-07 tol =   0.100000E-10
 Iteration #          3
 delta_qm =   0.530461E-04 delta_en =   0.645657E-07 tol =   0.100000E-10
 Iteration #          4
 delta_qm =   0.388559E-04 delta_en =   0.472939E-07 tol =   0.100000E-10
 Iteration #          5
 delta_qm =   0.301789E-04 delta_en =   0.367326E-07 tol =   0.100000E-10
 Iteration #          6
 delta_qm =   0.233452E-04 delta_en =   0.284149E-07 tol =   0.100000E-10
 Iteration #          7
 delta_qm =   0.177300E-04 delta_en =   0.215803E-07 tol =   0.100000E-10
 Iteration #          8
 delta_qm =   0.134246E-04 delta_en =   0.163399E-07 tol =   0.100000E-10
 Iteration #          9
 delta_qm =   0.103340E-04 delta_en =   0.125781E-07 tol =   0.100000E-10
 Iteration #         10
 delta_qm =   0.813880E-05 delta_en =   0.990623E-08 tol =   0.100000E-10
 Iteration #         11
 delta_qm =   0.651023E-05 delta_en =   0.792400E-08 tol =   0.100000E-10
 Iteration #         12
 delta_qm =   0.524977E-05 delta_en =   0.638981E-08 tol =   0.100000E-10
 Iteration #         13
 delta_qm =   0.427662E-05 delta_en =   0.520534E-08 tol =   0.100000E-10
 Iteration #         14
 delta_qm =   0.355347E-05 delta_en =   0.432514E-08 tol =   0.100000E-10
 Iteration #         15
 delta_qm =   0.303524E-05 delta_en =   0.369438E-08 tol =   0.100000E-10
 Iteration #         16
 delta_qm =   0.266285E-05 delta_en =   0.324111E-08 tol =   0.100000E-10
 Iteration #         17
 delta_qm =   0.238115E-05 delta_en =   0.289824E-08 tol =   0.100000E-10
 Iteration #         18
 delta_qm =   0.215214E-05 delta_en =   0.261950E-08 tol =   0.100000E-10
 Iteration #         19
 delta_qm =   0.195432E-05 delta_en =   0.237873E-08 tol =   0.100000E-10
 Iteration #         20
 delta_qm =   0.177635E-05 delta_en =   0.216211E-08 tol =   0.100000E-10
 Iteration #         21
 delta_qm =   0.161210E-05 delta_en =   0.196219E-08 tol =   0.100000E-10
 Iteration #         22
 delta_qm =   0.145839E-05 delta_en =   0.177510E-08 tol =   0.100000E-10
 Iteration #         23
 delta_qm =   0.131396E-05 delta_en =   0.159930E-08 tol =   0.100000E-10
 Iteration #         24
 delta_qm =   0.117864E-05 delta_en =   0.143460E-08 tol =   0.100000E-10
 Iteration #         25
 delta_qm =   0.105267E-05 delta_en =   0.128127E-08 tol =   0.100000E-10
 Iteration #         26
 delta_qm =   0.936213E-06 delta_en =   0.113952E-08 tol =   0.100000E-10
 Iteration #         27
 delta_qm =   0.829282E-06 delta_en =   0.100937E-08 tol =   0.100000E-10
 Iteration #         28
 delta_qm =   0.731749E-06 delta_en =   0.890657E-09 tol =   0.100000E-10
 Iteration #         29
 delta_qm =   0.643409E-06 delta_en =   0.783132E-09 tol =   0.100000E-10
 Iteration #         30
 delta_qm =   0.563975E-06 delta_en =   0.686448E-09 tol =   0.100000E-10
 Iteration #         31
 delta_qm =   0.493039E-06 delta_en =   0.600108E-09 tol =   0.100000E-10
 Iteration #         32
 delta_qm =   0.430051E-06 delta_en =   0.523442E-09 tol =   0.100000E-10
 Iteration #         33
 delta_qm =   0.374344E-06 delta_en =   0.455637E-09 tol =   0.100000E-10
 Iteration #         34
 delta_qm =   0.325192E-06 delta_en =   0.395811E-09 tol =   0.100000E-10
 Iteration #         35
 delta_qm =   0.281881E-06 delta_en =   0.343094E-09 tol =   0.100000E-10
 Iteration #         36
 delta_qm =   0.243761E-06 delta_en =   0.296696E-09 tol =   0.100000E-10
 Iteration #         37
 delta_qm =   0.210264E-06 delta_en =   0.255925E-09 tol =   0.100000E-10
 Iteration #         38
 delta_qm =   0.180899E-06 delta_en =   0.220184E-09 tol =   0.100000E-10
 Iteration #         39
 delta_qm =   0.155239E-06 delta_en =   0.188951E-09 tol =   0.100000E-10
 Iteration #         40
 delta_qm =   0.132896E-06 delta_en =   0.161756E-09 tol =   0.100000E-10
 Iteration #         41
 delta_qm =   0.113514E-06 delta_en =   0.138164E-09 tol =   0.100000E-10
 Iteration #         42
 delta_qm =   0.967568E-07 delta_en =   0.117769E-09 tol =   0.100000E-10
 Iteration #         43
 delta_qm =   0.823142E-07 delta_en =   0.100190E-09 tol =   0.100000E-10
 Iteration #         44
 delta_qm =   0.698988E-07 delta_en =   0.850782E-10 tol =   0.100000E-10
 Iteration #         45
 delta_qm =   0.592513E-07 delta_en =   0.721183E-10 tol =   0.100000E-10
 Iteration #         46
 delta_qm =   0.501398E-07 delta_en =   0.610282E-10 tol =   0.100000E-10
 Iteration #         47
 delta_qm =   0.423597E-07 delta_en =   0.515586E-10 tol =   0.100000E-10
 Iteration #         48
 delta_qm =   0.357312E-07 delta_en =   0.434906E-10 tol =   0.100000E-10
 Iteration #         49
 delta_qm =   0.300961E-07 delta_en =   0.366319E-10 tol =   0.100000E-10
 Iteration #         50
 delta_qm =   0.253156E-07 delta_en =   0.308132E-10 tol =   0.100000E-10
 Iteration #         51
 delta_qm =   0.212677E-07 delta_en =   0.258863E-10 tol =   0.100000E-10
 Iteration #         52
 delta_qm =   0.178457E-07 delta_en =   0.217211E-10 tol =   0.100000E-10
 Iteration #         53
 delta_qm =   0.149568E-07 delta_en =   0.182048E-10 tol =   0.100000E-10
 Iteration #         54
 delta_qm =   0.125208E-07 delta_en =   0.152399E-10 tol =   0.100000E-10
 Iteration #         55
 delta_qm =   0.104692E-07 delta_en =   0.127427E-10 tol =   0.100000E-10
 Iteration #         56
 delta_qm =   0.874330E-08 delta_en =   0.106420E-10 tol =   0.100000E-10
 Iteration #         57
 delta_qm =   0.729324E-08 delta_en =   0.887704E-11 tol =   0.100000E-10
 Charges are converged, exit!

%%%% ELECTRONS %%%%%%%%%%%%%%%%%%%%%%%%%%%%%%%%%%%%%%%%%%%%%%%%%%%%%%%%%%%%%%%%%
 number of electrons        =         90
 total electronic charge    =     90.0000000
 number of spin components  =  1

%%%% BOUNDARY %%%%%%%%%%%%%%%%%%%%%%%%%%%%%%%%%%%%%%%%%%%%%%%%%%%%%%%%%%%%%%%%%%
 boundary mode              = electronic           
 boundary is built as a function of a smooth density
 function type              =  1 
 using the optimal SCCS function with parameters 
 rhomax                     =      0.0050000 
 rhomin                     =      0.0001000 

%%%% DIELECTRIC %%%%%%%%%%%%%%%%%%%%%%%%%%%%%%%%%%%%%%%%%%%%%%%%%%%%%%%%%%%%%%%%%
 dielectric build on homogeneous background
 environment bulk permitt.  =    100.0000000 
 dielectric flags
 need gradient              =  F 
 need factor depend. sqrt   =  F 
 need gradient of logarithm =  T 

%%%% COMPUTE ELECTROSTATIC POTENTIAL %%%%%%%%%%%%%%%%%%%%%%%%%%%%%%%%%%%%%%%%%%%
 Starting from polarization: rhoiter =      0.264117 jellium =      0.000000
 Iteration #          1
 delta_qm =   0.447359E-04 delta_en =   0.544508E-07 tol =   0.100000E-10
 Iteration #          2
 delta_qm =   0.295143E-04 delta_en =   0.359237E-07 tol =   0.100000E-10
 Iteration #          3
 delta_qm =   0.200231E-04 delta_en =   0.243713E-07 tol =   0.100000E-10
 Iteration #          4
 delta_qm =   0.139756E-04 delta_en =   0.170106E-07 tol =   0.100000E-10
 Iteration #          5
 delta_qm =   0.103071E-04 delta_en =   0.125454E-07 tol =   0.100000E-10
 Iteration #          6
 delta_qm =   0.794507E-05 delta_en =   0.967043E-08 tol =   0.100000E-10
 Iteration #          7
 delta_qm =   0.619135E-05 delta_en =   0.753587E-08 tol =   0.100000E-10
 Iteration #          8
 delta_qm =   0.476391E-05 delta_en =   0.579845E-08 tol =   0.100000E-10
 Iteration #          9
 delta_qm =   0.359948E-05 delta_en =   0.438115E-08 tol =   0.100000E-10
 Iteration #         10
 delta_qm =   0.269603E-05 delta_en =   0.328150E-08 tol =   0.100000E-10
 Iteration #         11
 delta_qm =   0.204161E-05 delta_en =   0.248497E-08 tol =   0.100000E-10
 Iteration #         12
 delta_qm =   0.159571E-05 delta_en =   0.194224E-08 tol =   0.100000E-10
 Iteration #         13
 delta_qm =   0.129897E-05 delta_en =   0.158106E-08 tol =   0.100000E-10
 Iteration #         14
 delta_qm =   0.109553E-05 delta_en =   0.133343E-08 tol =   0.100000E-10
 Iteration #         15
 delta_qm =   0.948130E-06 delta_en =   0.115403E-08 tol =   0.100000E-10
 Iteration #         16
 delta_qm =   0.837234E-06 delta_en =   0.101905E-08 tol =   0.100000E-10
 Iteration #         17
 delta_qm =   0.752457E-06 delta_en =   0.915861E-09 tol =   0.100000E-10
 Iteration #         18
 delta_qm =   0.686220E-06 delta_en =   0.835241E-09 tol =   0.100000E-10
 Iteration #         19
 delta_qm =   0.631901E-06 delta_en =   0.769126E-09 tol =   0.100000E-10
 Iteration #         20
 delta_qm =   0.584320E-06 delta_en =   0.711212E-09 tol =   0.100000E-10
 Iteration #         21
 delta_qm =   0.540234E-06 delta_en =   0.657552E-09 tol =   0.100000E-10
 Iteration #         22
 delta_qm =   0.498098E-06 delta_en =   0.606266E-09 tol =   0.100000E-10
 Iteration #         23
 delta_qm =   0.457433E-06 delta_en =   0.556770E-09 tol =   0.100000E-10
 Iteration #         24
 delta_qm =   0.418243E-06 delta_en =   0.509070E-09 tol =   0.100000E-10
 Iteration #         25
 delta_qm =   0.380675E-06 delta_en =   0.463343E-09 tol =   0.100000E-10
 Iteration #         26
 delta_qm =   0.344882E-06 delta_en =   0.419777E-09 tol =   0.100000E-10
 Iteration #         27
 delta_qm =   0.311003E-06 delta_en =   0.378540E-09 tol =   0.100000E-10
 Iteration #         28
 delta_qm =   0.279164E-06 delta_en =   0.339787E-09 tol =   0.100000E-10
 Iteration #         29
 delta_qm =   0.249473E-06 delta_en =   0.303649E-09 tol =   0.100000E-10
 Iteration #         30
 delta_qm =   0.222005E-06 delta_en =   0.270216E-09 tol =   0.100000E-10
 Iteration #         31
 delta_qm =   0.196786E-06 delta_en =   0.239520E-09 tol =   0.100000E-10
 Iteration #         32
 delta_qm =   0.173793E-06 delta_en =   0.211534E-09 tol =   0.100000E-10
 Iteration #         33
 delta_qm =   0.152956E-06 delta_en =   0.186172E-09 tol =   0.100000E-10
 Iteration #         34
 delta_qm =   0.134177E-06 delta_en =   0.163315E-09 tol =   0.100000E-10
 Iteration #         35
 delta_qm =   0.117336E-06 delta_en =   0.142817E-09 tol =   0.100000E-10
 Iteration #         36
 delta_qm =   0.102303E-06 delta_en =   0.124519E-09 tol =   0.100000E-10
 Iteration #         37
 delta_qm =   0.889449E-07 delta_en =   0.108260E-09 tol =   0.100000E-10
 Iteration #         38
 delta_qm =   0.771263E-07 delta_en =   0.938751E-10 tol =   0.100000E-10
 Iteration #         39
 delta_qm =   0.667117E-07 delta_en =   0.811989E-10 tol =   0.100000E-10
 Iteration #         40
 delta_qm =   0.575680E-07 delta_en =   0.700696E-10 tol =   0.100000E-10
 Iteration #         41
 delta_qm =   0.495663E-07 delta_en =   0.603302E-10 tol =   0.100000E-10
 Iteration #         42
 delta_qm =   0.425842E-07 delta_en =   0.518319E-10 tol =   0.100000E-10
 Iteration #         43
 delta_qm =   0.365078E-07 delta_en =   0.444359E-10 tol =   0.100000E-10
 Iteration #         44
 delta_qm =   0.312328E-07 delta_en =   0.380154E-10 tol =   0.100000E-10
 Iteration #         45
 delta_qm =   0.266647E-07 delta_en =   0.324553E-10 tol =   0.100000E-10
 Iteration #         46
 delta_qm =   0.227186E-07 delta_en =   0.276522E-10 tol =   0.100000E-10
 Iteration #         47
 delta_qm =   0.193184E-07 delta_en =   0.235136E-10 tol =   0.100000E-10
 Iteration #         48
 delta_qm =   0.163958E-07 delta_en =   0.199563E-10 tol =   0.100000E-10
 Iteration #         49
 delta_qm =   0.138899E-07 delta_en =   0.169063E-10 tol =   0.100000E-10
 Iteration #         50
 delta_qm =   0.117463E-07 delta_en =   0.142972E-10 tol =   0.100000E-10
 Iteration #         51
 delta_qm =   0.991682E-08 delta_en =   0.120704E-10 tol =   0.100000E-10
 Iteration #         52
 delta_qm =   0.835867E-08 delta_en =   0.101739E-10 tol =   0.100000E-10
 Iteration #         53
 delta_qm =   0.703436E-08 delta_en =   0.856196E-11 tol =   0.100000E-10
 Charges are converged, exit!

%%%% ELECTRONS %%%%%%%%%%%%%%%%%%%%%%%%%%%%%%%%%%%%%%%%%%%%%%%%%%%%%%%%%%%%%%%%%
 number of electrons        =         90
 total electronic charge    =     90.0000000
 number of spin components  =  1

%%%% BOUNDARY %%%%%%%%%%%%%%%%%%%%%%%%%%%%%%%%%%%%%%%%%%%%%%%%%%%%%%%%%%%%%%%%%%
 boundary mode              = electronic           
 boundary is built as a function of a smooth density
 function type              =  1 
 using the optimal SCCS function with parameters 
 rhomax                     =      0.0050000 
 rhomin                     =      0.0001000 

%%%% DIELECTRIC %%%%%%%%%%%%%%%%%%%%%%%%%%%%%%%%%%%%%%%%%%%%%%%%%%%%%%%%%%%%%%%%%
 dielectric build on homogeneous background
 environment bulk permitt.  =    100.0000000 
 dielectric flags
 need gradient              =  F 
 need factor depend. sqrt   =  F 
 need gradient of logarithm =  T 
