
     Program PWSCF v.6.1 (svn rev. 13369) starts on  8Nov2017 at 15:37:15 

     This program is part of the open-source Quantum ESPRESSO suite
     for quantum simulation of materials; please cite
         "P. Giannozzi et al., J. Phys.:Condens. Matter 21 395502 (2009);
          URL http://www.quantum-espresso.org", 
     in publications or presentations arising from this work. More details at
     http://www.quantum-espresso.org/quote

     Parallel version (MPI), running on     1 processors
     Reading input from charged.in

     Current dimensions of program PWSCF are:
     Max number of different atomic species (ntypx) = 10
     Max number of k-points (npk) =  40000
     Max angular momentum in pseudopotentials (lmaxx) =  3
               file C.pbe-rrkjus.UPF: wavefunction(s)  2S 2P renormalized
               file O.pbe-rrkjus.UPF: wavefunction(s)  2S renormalized

     gamma-point specific algorithms are used

     Subspace diagonalization in iterative solution of the eigenvalue problem:
     a serial algorithm will be used

 
     G-vector sticks info
     --------------------
     sticks:   dense  smooth     PW     G-vecs:    dense   smooth      PW
     Sum        2357    1099    269               366833   116965   14571
 


     bravais-lattice index     =            8
     lattice parameter (alat)  =      10.6881  a.u.
     unit-cell volume          =    4181.1215 (a.u.)^3
     number of atoms/cell      =           10
     number of atomic types    =            3
     number of electrons       =        89.00
     number of Kohn-Sham states=           80
     kinetic-energy cutoff     =      35.0000  Ry
     charge density cutoff     =     300.0000  Ry
     convergence threshold     =      5.0E-02
     mixing beta               =       0.7000
     number of iterations used =            8  plain     mixing
     Exchange-correlation      = PBE ( 1  4  3  4 0 0)
 

     Environ Module
     ==============

     Plese cite
         O. Andreussi, I. Dabo and N. Marzari, J. Chem. Phys. 136, 064102 (2012)         
     in publications or presentations arising from this work.

     compensation onset threshold      =               0.1000E+03 
     static permittivity               =                   100.00 
     epsilon calculation mode          =                     full 

     Electrostatic Setup
     -------------------
     electrostatic problem to solve    = generalized              
     numerical solver adopted          = cg                       
     type of auxiliary density adopted = none                     
     type of core tool for poisson     = fft                      
     type of core tool for s(r) deriv  = analytic                 



     celldm(1)=  10.688100  celldm(2)=   0.866025  celldm(3)=   3.954220
     celldm(4)=   0.000000  celldm(5)=   0.000000  celldm(6)=   0.000000

     crystal axes: (cart. coord. in units of alat)
               a(1) = (   1.000000   0.000000   0.000000 )  
               a(2) = (   0.000000   0.866025   0.000000 )  
               a(3) = (   0.000000   0.000000   3.954220 )  

     reciprocal axes: (cart. coord. in units 2 pi/alat)
               b(1) = (  1.000000  0.000000  0.000000 )  
               b(2) = (  0.000000  1.154701  0.000000 )  
               b(3) = (  0.000000  0.000000  0.252894 )  


     PseudoPot. # 1 for C  read from file:
     /home/andreo/PWSCF/espresso-6.1-Environ-1.0/Environ/tests/../..//pseudo/C.pbe-rrkjus.UPF
     MD5 check sum: 00fb224312de0c5b6853bd333518df6f
     Pseudo is Ultrasoft, Zval =  4.0
     Generated by new atomic code, or converted to UPF format
     Using radial grid of  627 points,  4 beta functions with: 
                l(1) =   0
                l(2) =   0
                l(3) =   1
                l(4) =   1
     Q(r) pseudized with 0 coefficients 


     PseudoPot. # 2 for O  read from file:
     /home/andreo/PWSCF/espresso-6.1-Environ-1.0/Environ/tests/../..//pseudo/O.pbe-rrkjus.UPF
     MD5 check sum: 390ba29e75625707450f3bd3f0eb6be9
     Pseudo is Ultrasoft, Zval =  6.0
     Generated by new atomic code, or converted to UPF format
     Using radial grid of 1269 points,  4 beta functions with: 
                l(1) =   0
                l(2) =   0
                l(3) =   1
                l(4) =   1
     Q(r) pseudized with 0 coefficients 


     PseudoPot. # 3 for Pt read from file:
     /home/andreo/PWSCF/espresso-6.1-Environ-1.0/Environ/tests/../..//pseudo/Pt.pbe-n-rrkjus_psl.0.1.UPF
     MD5 check sum: df5be8f5ed4f66d4aed38ca70ec8d507
     Pseudo is Ultrasoft + core correction, Zval = 10.0
     Generated using "atomic" code by A. Dal Corso  v.5.0.2 svn rev. 9415
     Using radial grid of 1277 points,  6 beta functions with: 
                l(1) =   0
                l(2) =   0
                l(3) =   1
                l(4) =   1
                l(5) =   2
                l(6) =   2
     Q(r) pseudized with 0 coefficients 


     atomic species   valence    mass     pseudopotential
        C              4.00     1.00000     C ( 1.00)
        O              6.00     1.00000     O ( 1.00)
        Pt            10.00     1.00000     Pt( 1.00)

     No symmetry found



   Cartesian axes

     site n.     atom                  positions (alat units)
         1           C   tau(   1) = (   0.4991611   0.4347567   1.2070461  )
         2           O   tau(   2) = (   0.4991542   0.4322212   1.4109013  )
         3           Pt  tau(   3) = (   0.7542339   0.0091745   0.8413229  )
         4           Pt  tau(   4) = (   0.2441023   0.0091745   0.8413226  )
         5           Pt  tau(   5) = (   0.0000034   0.4416918   0.8391348  )
         6           Pt  tau(   6) = (   0.4991682   0.4417635   0.8776299  )
         7           Pt  tau(   7) = (   0.0000038   0.7300598   0.4308181  )
         8           Pt  tau(   8) = (   0.4991683   0.7202168   0.4447460  )
         9           Pt  tau(   9) = (   0.2524172   0.2949237   0.4386572  )
        10           Pt  tau(  10) = (   0.7459196   0.2949237   0.4386575  )

     number of k points=     1  Marzari-Vanderbilt smearing, width (Ry)=  0.0300
                       cart. coord. in units 2pi/alat
        k(    1) = (   0.0000000   0.0000000   0.0000000), wk =   2.0000000

     Dense  grid:   183417 G-vectors     FFT dimensions: (  60,  54, 240)

     Smooth grid:    58483 G-vectors     FFT dimensions: (  45,  36, 160)

     Estimated max dynamical RAM per process >     231.32MB

     Initial potential from superposition of free atoms
     Check: negative starting charge=   -0.003086

     starting charge   89.99859, renormalised to   89.00000

     negative rho (up, down):  3.052E-03 0.000E+00
     Starting wfc are   80 randomized atomic wfcs

     total cpu time spent up to now is        6.8 secs

     per-process dynamical memory:   339.3 Mb

     Self-consistent Calculation

     iteration #  1     ecut=    35.00 Ry     beta=0.70
     Davidson diagonalization with overlap
     ethr =  1.00E-02,  avg # of iterations =  5.0

     negative rho (up, down):  2.890E-03 0.000E+00

     add environment contribution to local potential
     polarization accuracy = 4.7E-05, # of iterations =  23

     total cpu time spent up to now is       12.8 secs

     total energy              =    -622.68827052 Ry
     Harris-Foulkes estimate   =    -624.21132537 Ry
     estimated scf accuracy    <       1.86639615 Ry
     electrostatic embedding   =       0.03381190 Ry
     correction to one-el term =       0.00000000 Ry

     iteration #  2     ecut=    35.00 Ry     beta=0.70
     Davidson diagonalization with overlap
     ethr =  2.10E-03,  avg # of iterations =  8.0

     negative rho (up, down):  2.113E-02 0.000E+00

     add environment contribution to local potential
     polarization accuracy = 7.6E-05, # of iterations =  37

     total cpu time spent up to now is       20.4 secs

     total energy              =    -618.16712091 Ry
     Harris-Foulkes estimate   =    -635.99324152 Ry
     estimated scf accuracy    <      48.53742071 Ry
     electrostatic embedding   =       0.18779811 Ry
     correction to one-el term =       8.60310539 Ry

     iteration #  3     ecut=    35.00 Ry     beta=0.70
     Davidson diagonalization with overlap
     ethr =  2.10E-03,  avg # of iterations =  3.0

     negative rho (up, down):  7.469E-03 0.000E+00

     add environment contribution to local potential
     polarization accuracy = 7.9E-05, # of iterations =  24

     total cpu time spent up to now is       26.2 secs

     total energy              =    -623.28488638 Ry
     Harris-Foulkes estimate   =    -633.13707865 Ry
     estimated scf accuracy    <       3.03604407 Ry
     electrostatic embedding   =       0.21340147 Ry
     correction to one-el term =       9.03320424 Ry

     iteration #  4     ecut=    35.00 Ry     beta=0.70
     Davidson diagonalization with overlap
     ethr =  2.10E-03,  avg # of iterations =  2.0

     negative rho (up, down):  1.034E-02 0.000E+00

     add environment contribution to local potential
     polarization accuracy = 3.1E-05, # of iterations =  28

     total cpu time spent up to now is       32.0 secs

     total energy              =    -623.59643127 Ry
     Harris-Foulkes estimate   =    -634.43525643 Ry
     estimated scf accuracy    <       1.87841453 Ry
     electrostatic embedding   =       0.21713152 Ry
     correction to one-el term =      10.29944189 Ry

     iteration #  5     ecut=    35.00 Ry     beta=0.70
     Davidson diagonalization with overlap
     ethr =  2.10E-03,  avg # of iterations =  1.0

     negative rho (up, down):  1.026E-02 0.000E+00

     add environment contribution to local potential
     polarization accuracy = 7.5E-05, # of iterations =  31

     total cpu time spent up to now is       38.0 secs

     total energy              =    -623.68348902 Ry
     Harris-Foulkes estimate   =    -633.74518512 Ry
     estimated scf accuracy    <       0.41267431 Ry
     electrostatic embedding   =       0.21399029 Ry
     correction to one-el term =       9.80358801 Ry

     iteration #  6     ecut=    35.00 Ry     beta=0.70
     Davidson diagonalization with overlap
     ethr =  4.64E-04,  avg # of iterations =  1.0

     negative rho (up, down):  6.941E-03 0.000E+00

     add environment contribution to local potential
     polarization accuracy = 9.5E-05, # of iterations =  28

     total cpu time spent up to now is       43.8 secs

     total energy              =    -623.68000028 Ry
     Harris-Foulkes estimate   =    -633.09703604 Ry
     estimated scf accuracy    <       0.25974550 Ry
     electrostatic embedding   =       0.20951133 Ry
     correction to one-el term =       9.17958623 Ry

     iteration #  7     ecut=    35.00 Ry     beta=0.70
     Davidson diagonalization with overlap
     ethr =  2.92E-04,  avg # of iterations =  1.0

     negative rho (up, down):  4.898E-03 0.000E+00

     add environment contribution to local potential
     polarization accuracy = 3.7E-05, # of iterations =  27

     total cpu time spent up to now is       49.6 secs

     total energy              =    -623.68512869 Ry
     Harris-Foulkes estimate   =    -632.57718736 Ry
     estimated scf accuracy    <       0.05482456 Ry
     electrostatic embedding   =       0.20581918 Ry
     correction to one-el term =       8.67181551 Ry

     iteration #  8     ecut=    35.00 Ry     beta=0.70
     Davidson diagonalization with overlap
     ethr =  6.16E-05,  avg # of iterations = 12.0

     negative rho (up, down):  4.122E-03 0.000E+00

     add environment contribution to local potential
     polarization accuracy = 8.2E-05, # of iterations =  26

     total cpu time spent up to now is       55.5 secs

     total energy              =    -623.69073470 Ry
     Harris-Foulkes estimate   =    -632.10836330 Ry
     estimated scf accuracy    <       0.05463157 Ry
     electrostatic embedding   =       0.20215459 Ry
     correction to one-el term =       8.20775202 Ry

     iteration #  9     ecut=    35.00 Ry     beta=0.70
     Davidson diagonalization with overlap
     ethr =  6.14E-05,  avg # of iterations =  1.0

     negative rho (up, down):  3.568E-03 0.000E+00

     total cpu time spent up to now is       58.6 secs

     End of self-consistent calculation

          k = 0.0000 0.0000 0.0000 (  7286 PWs)   bands (ev):

   -29.5282 -16.0401 -14.4294 -13.1865 -12.9671 -12.3845 -12.3828 -12.2377
   -12.0894 -11.2411 -11.1164 -10.9930 -10.7711 -10.7280 -10.6343 -10.5564
    -9.8179  -9.7742  -9.7099  -9.5354  -9.5097  -9.4498  -9.4252  -9.3878
    -9.3620  -9.1790  -9.1509  -9.0706  -8.9498  -8.7324  -8.6307  -7.8415
    -7.7162  -7.4587  -7.2539  -7.1871  -7.0994  -6.9491  -6.8368  -6.7140
    -6.4875  -6.4433  -6.2944  -6.2426  -6.1976  -6.0342  -5.8668  -4.8099
    -4.4858  -4.4122  -3.8220  -3.1512  -3.0085  -2.0141  -1.6940  -1.6189
    -0.2975  -0.1052  -0.0051   0.3046   0.8018   1.1414   1.3528   1.3847
     2.2396   2.4611   2.6504   2.8055   2.9367   3.2725   4.1542   4.5350
     4.6138   4.6824   4.9239   5.2588   5.3567   5.4215   5.5266   5.6105

     the Fermi energy is    -6.1075 ev

!    total energy              =    -623.67109516 Ry
     Harris-Foulkes estimate   =    -631.97440812 Ry
     estimated scf accuracy    <       0.02964598 Ry

     The total energy is the sum of the following terms:

     one-electron contribution =   -3947.67798993 Ry
     hartree contribution      =    2005.32013885 Ry
     xc contribution           =    -262.79007250 Ry
     ewald contribution        =    1573.20467954 Ry
     smearing contrib. (-TS)   =      -0.00295542 Ry
     electrostatic embedding   =       0.20093004 Ry
     correction to one-el term =       8.07417426 Ry

     convergence has been achieved in   9 iterations

     negative rho (up, down):  3.568E-03 0.000E+00

     Forces acting on atoms (cartesian axes, Ry/au):

     atom    1 type  1   force =    -0.00006653   -0.00654131    0.06420248
     atom    2 type  2   force =     0.00005816    0.00229991   -0.09697898
     atom    3 type  3   force =    -0.01489304    0.00535309    0.03307803
     atom    4 type  3   force =     0.01581315    0.00481014    0.03589294
     atom    5 type  3   force =    -0.00387751    0.01437516    0.02177005
     atom    6 type  3   force =     0.00287303    0.01746236    0.06252391
     atom    7 type  3   force =    -0.00353150   -0.00303972   -0.03790785
     atom    8 type  3   force =     0.00264472   -0.01686848   -0.00692548
     atom    9 type  3   force =     0.03220233   -0.00881270   -0.03872345
     atom   10 type  3   force =    -0.03122282   -0.00903844   -0.03693165

     Total force =     0.168024     Total SCF correction =     0.390987
     SCF correction compared to forces is large: reduce conv_thr to get better values

     Writing output data file pwscf.save
 
     init_run     :      6.06s CPU      6.41s WALL (       1 calls)
     electrons    :     49.32s CPU     52.53s WALL (       1 calls)
     forces       :      4.62s CPU      4.78s WALL (       1 calls)

     Called by init_run:
     wfcinit      :      0.46s CPU      0.47s WALL (       1 calls)
     potinit      :      2.07s CPU      2.09s WALL (       1 calls)

     Called by electrons:
     c_bands      :     10.38s CPU     10.45s WALL (       9 calls)
     sum_band     :      7.46s CPU      8.69s WALL (       9 calls)
     v_of_rho     :      3.42s CPU      3.45s WALL (      10 calls)
     newd         :      4.50s CPU      5.75s WALL (      10 calls)
     mix_rho      :      0.36s CPU      0.37s WALL (       9 calls)

     Called by c_bands:
     init_us_2    :      0.08s CPU      0.09s WALL (      19 calls)
     regterg      :      9.74s CPU      9.81s WALL (       9 calls)

     Called by sum_band:
     sum_band:bec :      0.00s CPU      0.00s WALL (       9 calls)
     addusdens    :      5.15s CPU      6.39s WALL (       9 calls)

     Called by *egterg:
     h_psi        :      7.94s CPU      7.94s WALL (      44 calls)
     s_psi        :      0.39s CPU      0.39s WALL (      44 calls)
     g_psi        :      0.07s CPU      0.07s WALL (      34 calls)
     rdiaghg      :      0.34s CPU      0.33s WALL (      43 calls)

     Called by h_psi:
     h_psi:pot    :      7.88s CPU      7.89s WALL (      44 calls)
     h_psi:calbec :      0.41s CPU      0.40s WALL (      44 calls)
     vloc_psi     :      7.10s CPU      7.10s WALL (      44 calls)
     add_vuspsi   :      0.37s CPU      0.39s WALL (      44 calls)

     General routines
     calbec       :      0.66s CPU      0.66s WALL (      57 calls)
     fft          :     10.58s CPU     10.65s WALL (     740 calls)
     ffts         :      0.08s CPU      0.08s WALL (      19 calls)
     fftw         :      7.29s CPU      7.25s WALL (    2188 calls)
     interpolate  :      0.40s CPU      0.42s WALL (      19 calls)
     davcio       :      0.00s CPU      0.00s WALL (       1 calls)
 
     Parallel routines
     fft_scatter  :      2.52s CPU      2.54s WALL (    2947 calls)
 
     Environ routines
     calc_eelect  :      0.01s CPU      0.01s WALL (      18 calls)
     calc_velect  :     20.54s CPU     20.56s WALL (      16 calls)
     dielectric   :      0.24s CPU      0.24s WALL (      11 calls)
     calc_felect  :      0.19s CPU      0.20s WALL (       1 calls)
 
     PWSCF        :  1m 0.41s CPU     1m 6.26s WALL

 
   This run was terminated on:  15:38:21   8Nov2017            

=------------------------------------------------------------------------------=
   JOB DONE.
=------------------------------------------------------------------------------=

%%%% IONS %%%%%%%%%%%%%%%%%%%%%%%%%%%%%%%%%%%%%%%%%%%%%%%%%%%%%%%%%%%%%%%%%%%%%%
 number of ions             =         10
 ionic center of charge     =      0.3882415     0.3750182     0.7201831
 total ionic charge         =    -90.0000000
 ionic dipole               =      0.0000000     0.0000000     0.0000000
 ionic quadrupole (pc)      =   -730.5101255  -614.6110457  -876.7220256
 ionic quadrupole (gauss)   =   -741.7601255  -625.8610457  -887.9720256
 ion   1 type =  1 coordinates =      5.3350841     4.6467234    12.9010299
 ion   2 type =  2 coordinates =      5.3350096     4.6196233    15.0798543
 ion   3 type =  3 coordinates =      8.0613271     0.0980580     8.9921429
 ion   4 type =  3 coordinates =      2.6089894     0.0980583     8.9921406
 ion   5 type =  3 coordinates =      0.0000366     4.7208463     8.9687569
 ion   6 type =  3 coordinates =      5.3351596     4.7216127     9.3801964
 ion   7 type =  3 coordinates =      0.0000411     7.8029520     4.6046265
 ion   8 type =  3 coordinates =      5.3351612     7.6977491     4.7534894
 ion   9 type =  3 coordinates =      2.6978606     3.1521739     4.6884123
 ion  10 type =  3 coordinates =      7.9724637     3.1521745     4.6884152

%%%% SYSTEM %%%%%%%%%%%%%%%%%%%%%%%%%%%%%%%%%%%%%%%%%%%%%%%%%%%%%%%%%%%%%%%%%%%%
 system is built from all present ionic types
 system defined dimension   =  0 
 system defined axis        =  3 
 system center              =      0.3882415     0.3750182     0.7201831 
 system width               =      1.5145225 

%%%% ELECTRONS %%%%%%%%%%%%%%%%%%%%%%%%%%%%%%%%%%%%%%%%%%%%%%%%%%%%%%%%%%%%%%%%%
 number of electrons        =         89
 total electronic charge    =     89.0000000
 number of spin components  =  1

%%%% BOUNDARY %%%%%%%%%%%%%%%%%%%%%%%%%%%%%%%%%%%%%%%%%%%%%%%%%%%%%%%%%%%%%%%%%%
 boundary mode              = full                 
 boundary is built as a function of a smooth density
 function type              =  2 
 using the modified SCCS function with parameters 
 rhomax                     =      0.0050000 
 rhomin                     =      0.0001000 
 volume of the QM region    =   1500.3587997 
 surface of the QM region   =    259.8802284 

%%%% DIELECTRIC %%%%%%%%%%%%%%%%%%%%%%%%%%%%%%%%%%%%%%%%%%%%%%%%%%%%%%%%%%%%%%%%%
 dielectric build on homogeneous background
 environment bulk permitt.  =    100.0000000 
 dielectric flags
 need gradient              =  F 
 need factor depend. sqrt   =  T 
 need gradient of logarithm =  T 

%%%% COMPUTE ELECTROSTATIC POTENTIAL %%%%%%%%%%%%%%%%%%%%%%%%%%%%%%%%%%%%%%%%%%%
 Iteration #          1
  pAp =    1295.72282836494       rzold =    1273.54774939827       alpha = 
  0.982885939429922     
 delta_qm =   0.267472E+00 delta_en =   0.556305E+05 tol =   0.100000E-03
 Iteration #          2
  pAp =    22323.6658778014       rzold =    682.674246338638       alpha = 
  3.058074108775686E-002
 delta_qm =   0.106259E+00 delta_en =   0.877989E+04 tol =   0.100000E-03
 Iteration #          3
  pAp =   -1.82611533110909       rzold =   0.929328036915361       alpha = 
 -0.508909826823990     
 delta_qm =   0.443373E-01 delta_en =   0.152860E+04 tol =   0.100000E-03
 Iteration #          4
  pAp =    41.5250530876746       rzold =    2.05415339639887       alpha = 
  4.946780903715644E-002
 delta_qm =   0.605516E-01 delta_en =   0.285107E+04 tol =   0.100000E-03
 Iteration #          5
  pAp =   0.820406919341997       rzold =  -0.743342014291856       alpha = 
 -0.906065023059593     
 delta_qm =   0.157503E-01 delta_en =   0.192900E+03 tol =   0.100000E-03
 Iteration #          6
  pAp =    1.23875411470968       rzold =   0.352045956474282       alpha = 
  0.284193571826633     
 delta_qm =   0.555116E-02 delta_en =   0.239620E+02 tol =   0.100000E-03
 Iteration #          7
  pAp =   4.708392358334957E-002  rzold =   2.182700427751487E-002  alpha = 
  0.463576580207381     
 delta_qm =   0.297495E-02 delta_en =   0.688202E+01 tol =   0.100000E-03
 Iteration #          8
  pAp =   6.491303242055803E-003  rzold =   3.559612061184002E-003  alpha = 
  0.548366318510899     
 delta_qm =   0.370183E-02 delta_en =   0.106559E+02 tol =   0.100000E-03
 Iteration #          9
  pAp =   1.897097746742928E-003  rzold =   1.808953318383804E-003  alpha = 
  0.953537223629907     
 delta_qm =   0.432640E-02 delta_en =   0.145549E+02 tol =   0.100000E-03
 Iteration #         10
  pAp =   2.299571440584498E-003  rzold =   3.677811556129618E-003  alpha = 
   1.59934650918904     
 delta_qm =   0.443380E-02 delta_en =   0.152865E+02 tol =   0.100000E-03
 Iteration #         11
  pAp =   1.534708011505234E-002  rzold =   1.546436870790319E-002  alpha = 
   1.00764240441645     
 delta_qm =   0.455918E-02 delta_en =   0.161633E+02 tol =   0.100000E-03
 Iteration #         12
  pAp =   4.353840593199135E-002  rzold =   2.021532452768525E-002  alpha = 
  0.464310166965285     
 delta_qm =   0.374829E-02 delta_en =   0.109250E+02 tol =   0.100000E-03
 Iteration #         13
  pAp =   6.255571929697877E-003  rzold =   2.560275761702324E-003  alpha = 
  0.409279245842830     
 delta_qm =   0.309225E-02 delta_en =   0.743544E+01 tol =   0.100000E-03
 Iteration #         14
  pAp =   0.235604065417242       rzold =   1.163240821732607E-002  alpha = 
  4.937269735446079E-002
 delta_qm =   0.209361E-02 delta_en =   0.340839E+01 tol =   0.100000E-03
 Iteration #         15
  pAp =   1.756302422618470E-003  rzold =   8.960384449799319E-004  alpha = 
  0.510184597732336     
 delta_qm =   0.131810E-02 delta_en =   0.135100E+01 tol =   0.100000E-03
 Iteration #         16
  pAp =   3.121640690257835E-004  rzold =   2.715075879050413E-004  alpha = 
  0.869759254331785     
 delta_qm =   0.807149E-03 delta_en =   0.506598E+00 tol =   0.100000E-03
 Iteration #         17
  pAp =   5.944174145636232E-004  rzold =   2.600267544024186E-004  alpha = 
  0.437448076102062     
 delta_qm =   0.448862E-03 delta_en =   0.156668E+00 tol =   0.100000E-03
 Iteration #         18
  pAp =   3.797896714142358E-004  rzold =   1.398295125836878E-004  alpha = 
  0.368176185684566     
 delta_qm =   0.209564E-03 delta_en =   0.341498E-01 tol =   0.100000E-03
 Iteration #         19
  pAp =   3.476932839106519E-005  rzold =   1.669725070023576E-005  alpha = 
  0.480229313388939     
 delta_qm =   0.115467E-03 delta_en =   0.103674E-01 tol =   0.100000E-03
 Iteration #         20
  pAp =   4.149482174982166E-006  rzold =   2.098216325310291E-006  alpha = 
  0.505657389724613     
 delta_qm =   0.661609E-04 delta_en =   0.340376E-02 tol =   0.100000E-03
 Iteration #         21
  pAp =   4.496482193408443E-007  rzold =   3.426468519195354E-007  alpha = 
  0.762033156545875     
 delta_qm =   0.280465E-04 delta_en =   0.611667E-03 tol =   0.100000E-03
 Iteration #         22
  pAp =   2.605873488353691E-007  rzold =   1.437510745125730E-007  alpha = 
  0.551642568816303     
 delta_qm =   0.154261E-04 delta_en =   0.185041E-03 tol =   0.100000E-03
 Iteration #         23
  pAp =   9.346599598389333E-008  rzold =   4.902372224061888E-008  alpha = 
  0.524508637869402     
 delta_qm =   0.774036E-05 delta_en =   0.465885E-04 tol =   0.100000E-03
 Charges are converged, EXIT

%%%% ELECTRONS %%%%%%%%%%%%%%%%%%%%%%%%%%%%%%%%%%%%%%%%%%%%%%%%%%%%%%%%%%%%%%%%%
 number of electrons        =         89
 total electronic charge    =     89.0000000
 number of spin components  =  1

%%%% BOUNDARY %%%%%%%%%%%%%%%%%%%%%%%%%%%%%%%%%%%%%%%%%%%%%%%%%%%%%%%%%%%%%%%%%%
 boundary mode              = full                 
 boundary is built as a function of a smooth density
 function type              =  2 
 using the modified SCCS function with parameters 
 rhomax                     =      0.0050000 
 rhomin                     =      0.0001000 
 volume of the QM region    =   1509.8538792 
 surface of the QM region   =    353.8969049 

%%%% DIELECTRIC %%%%%%%%%%%%%%%%%%%%%%%%%%%%%%%%%%%%%%%%%%%%%%%%%%%%%%%%%%%%%%%%%
 dielectric build on homogeneous background
 environment bulk permitt.  =    100.0000000 
 dielectric flags
 need gradient              =  F 
 need factor depend. sqrt   =  T 
 need gradient of logarithm =  T 

%%%% COMPUTE ELECTROSTATIC POTENTIAL %%%%%%%%%%%%%%%%%%%%%%%%%%%%%%%%%%%%%%%%%%%
 Warning: bad guess with residual norm =   0.563984E+06, reset to no guess
 Iteration #          1
  pAp =    1276.52628740541       rzold =    1274.40955308351       alpha = 
  0.998341801228235     
 delta_qm =   0.189933E+00 delta_en =   0.280516E+05 tol =   0.100000E-03
 Iteration #          2
  pAp =    1418.61720892594       rzold =    33.8997577195486       alpha = 
  2.389633898859489E-002
 delta_qm =   0.247679E+00 delta_en =   0.477016E+05 tol =   0.100000E-03
 Iteration #          3
  pAp =    56.2845748317399       rzold =    1.13837794068258       alpha = 
  2.022539823896167E-002
 delta_qm =   0.261584E+00 delta_en =   0.532082E+05 tol =   0.100000E-03
 Iteration #          4
  pAp =   0.752304933937532       rzold =  -0.962768096101177       alpha = 
  -1.27975778526679     
 delta_qm =   0.290062E-01 delta_en =   0.654243E+03 tol =   0.100000E-03
 Iteration #          5
  pAp =   0.325759417777917       rzold =   0.191059965155143       alpha = 
  0.586506344032689     
 delta_qm =   0.109890E+00 delta_en =   0.939017E+04 tol =   0.100000E-03
 Iteration #          6
  pAp =  -0.301018504620597       rzold =   0.209422574768005       alpha = 
 -0.695713291885364     
 delta_qm =   0.574360E-01 delta_en =   0.256522E+04 tol =   0.100000E-03
 Iteration #          7
  pAp =   0.749047415406081       rzold =   0.175723310601565       alpha = 
  0.234595710481559     
 delta_qm =   0.825321E-02 delta_en =   0.529666E+02 tol =   0.100000E-03
 Iteration #          8
  pAp =   5.069443249354445E-002  rzold =   1.554913211684484E-002  alpha = 
  0.306722678448465     
 delta_qm =   0.472635E-02 delta_en =   0.173703E+02 tol =   0.100000E-03
 Iteration #          9
  pAp =   4.112290930406579E-003  rzold =   1.655170183453723E-003  alpha = 
  0.402493454734750     
 delta_qm =   0.296886E-02 delta_en =   0.685387E+01 tol =   0.100000E-03
 Iteration #         10
  pAp =   1.117077854794185E-003  rzold =   4.559520755087116E-004  alpha = 
  0.408164993650078     
 delta_qm =   0.212452E-02 delta_en =   0.350977E+01 tol =   0.100000E-03
 Iteration #         11
  pAp =   2.399323468992378E-004  rzold =   1.932333920588690E-004  alpha = 
  0.805366156569208     
 delta_qm =   0.137620E-02 delta_en =   0.147272E+01 tol =   0.100000E-03
 Iteration #         12
  pAp =   2.749410592113424E-003  rzold =   3.099916236340539E-004  alpha = 
  0.112748392154760     
 delta_qm =   0.144015E-02 delta_en =   0.161278E+01 tol =   0.100000E-03
 Iteration #         13
  pAp =   7.578474544193870E-003  rzold =   1.043354169967657E-003  alpha = 
  0.137673375279331     
 delta_qm =   0.133768E-02 delta_en =   0.139142E+01 tol =   0.100000E-03
 Iteration #         14
  pAp =   5.751579122388647E-004  rzold =   2.585252620077269E-004  alpha = 
  0.449485709066210     
 delta_qm =   0.113673E-02 delta_en =   0.100478E+01 tol =   0.100000E-03
 Iteration #         15
  pAp =   1.704449495727034E-004  rzold =   6.939041750999742E-005  alpha = 
  0.407113368181079     
 delta_qm =   0.771132E-03 delta_en =   0.462395E+00 tol =   0.100000E-03
 Iteration #         16
  pAp =   7.809776332395017E-005  rzold =   3.321271270559461E-005  alpha = 
  0.425270984622543     
 delta_qm =   0.457323E-03 delta_en =   0.162631E+00 tol =   0.100000E-03
 Iteration #         17
  pAp =   1.730160049974997E-005  rzold =   1.137489685960759E-005  alpha = 
  0.657447665594404     
 delta_qm =   0.403002E-03 delta_en =   0.126291E+00 tol =   0.100000E-03
 Iteration #         18
  pAp =   1.912808032843806E-005  rzold =   1.750714964426107E-005  alpha = 
  0.915259103038838     
 delta_qm =   0.645470E-03 delta_en =   0.323972E+00 tol =   0.100000E-03
 Iteration #         19
  pAp =   1.338194546497591E-005  rzold =   1.540135007848737E-005  alpha = 
   1.15090515940278     
 delta_qm =   0.748235E-03 delta_en =   0.435344E+00 tol =   0.100000E-03
 Iteration #         20
  pAp =   3.378497154630939E-005  rzold =   2.932771675143148E-005  alpha = 
  0.868069896439951     
 delta_qm =   0.106359E-02 delta_en =   0.879642E+00 tol =   0.100000E-03
 Iteration #         21
  pAp =   1.344226642383703E-005  rzold =   5.054898032491900E-005  alpha = 
   3.76045071054990     
 delta_qm =   0.405631E-02 delta_en =   0.127944E+02 tol =   0.100000E-03
 Iteration #         22
  pAp =  -1.976550892574891E-003  rzold =   1.076900630015829E-003  alpha = 
 -0.544838300931847     
 delta_qm =   0.585058E-02 delta_en =   0.266167E+02 tol =   0.100000E-03
 Iteration #         23
  pAp =   0.333611423751150       rzold =   6.135528113428868E-003  alpha = 
  1.839124105655785E-002
 delta_qm =   0.485511E-02 delta_en =   0.183296E+02 tol =   0.100000E-03
 Iteration #         24
  pAp =   2.918271425540036E-003  rzold =   3.559871911007895E-006  alpha = 
  1.219856343674108E-003
 delta_qm =   0.486228E-02 delta_en =   0.183838E+02 tol =   0.100000E-03
 Iteration #         25
  pAp =   1.700001264305851E-007  rzold =  -3.551909913975554E-006  alpha = 
  -20.8935721905235     
 delta_qm =   0.237556E-02 delta_en =   0.438822E+01 tol =   0.100000E-03
 Iteration #         26
  pAp =   6.174436194043494E-004  rzold =   2.103902180593335E-004  alpha = 
  0.340744015238667     
 delta_qm =   0.771711E-03 delta_en =   0.463090E+00 tol =   0.100000E-03
 Iteration #         27
  pAp =   6.624289968900859E-005  rzold =   3.361782348965136E-005  alpha = 
  0.507493235463384     
 delta_qm =   0.516759E-03 delta_en =   0.207650E+00 tol =   0.100000E-03
 Iteration #         28
  pAp =   3.004117893361295E-005  rzold =   1.525796832858267E-005  alpha = 
  0.507901782493316     
 delta_qm =   0.330025E-03 delta_en =   0.846937E-01 tol =   0.100000E-03
 Iteration #         29
  pAp =   1.618271960963955E-005  rzold =   8.231842381230937E-006  alpha = 
  0.508681023944052     
 delta_qm =   0.178795E-03 delta_en =   0.248580E-01 tol =   0.100000E-03
 Iteration #         30
  pAp =   7.823338688104415E-006  rzold =   2.935190096114493E-006  alpha = 
  0.375183820250237     
 delta_qm =   0.140673E-03 delta_en =   0.153878E-01 tol =   0.100000E-03
 Iteration #         31
  pAp =   1.335784807176135E-006  rzold =   1.000171674956702E-006  alpha = 
  0.748752096582889     
 delta_qm =   0.105637E-03 delta_en =   0.867745E-02 tol =   0.100000E-03
 Iteration #         32
  pAp =   6.345071255722583E-005  rzold =   1.882255100761070E-006  alpha = 
  2.966483787023629E-002
 delta_qm =   0.953607E-04 delta_en =   0.707123E-02 tol =   0.100000E-03
 Iteration #         33
  pAp =   7.824627844922831E-007  rzold =   5.067822516131357E-007  alpha = 
  0.647675853289267     
 delta_qm =   0.608437E-04 delta_en =   0.287864E-02 tol =   0.100000E-03
 Iteration #         34
  pAp =   3.569413953505876E-007  rzold =   2.222742106660763E-007  alpha = 
  0.622719061339912     
 delta_qm =   0.294597E-04 delta_en =   0.674859E-03 tol =   0.100000E-03
 Iteration #         35
  pAp =   7.790694147070841E-008  rzold =   5.485129189027002E-008  alpha = 
  0.704061677365336     
 delta_qm =   0.227553E-04 delta_en =   0.402644E-03 tol =   0.100000E-03
 Iteration #         36
  pAp =   2.551202379277582E-008  rzold =   1.983784953797337E-008  alpha = 
  0.777588234438336     
 delta_qm =   0.126685E-04 delta_en =   0.124798E-03 tol =   0.100000E-03
 Iteration #         37
  pAp =   1.832857592633700E-008  rzold =   1.000487080980944E-008  alpha = 
  0.545861874376889     
 delta_qm =   0.989573E-05 delta_en =   0.761469E-04 tol =   0.100000E-03
 Charges are converged, EXIT

%%%% ELECTRONS %%%%%%%%%%%%%%%%%%%%%%%%%%%%%%%%%%%%%%%%%%%%%%%%%%%%%%%%%%%%%%%%%
 number of electrons        =         89
 total electronic charge    =     89.0000000
 number of spin components  =  1

%%%% BOUNDARY %%%%%%%%%%%%%%%%%%%%%%%%%%%%%%%%%%%%%%%%%%%%%%%%%%%%%%%%%%%%%%%%%%
 boundary mode              = full                 
 boundary is built as a function of a smooth density
 function type              =  2 
 using the modified SCCS function with parameters 
 rhomax                     =      0.0050000 
 rhomin                     =      0.0001000 
 volume of the QM region    =   1507.4086554 
 surface of the QM region   =    274.4065993 

%%%% DIELECTRIC %%%%%%%%%%%%%%%%%%%%%%%%%%%%%%%%%%%%%%%%%%%%%%%%%%%%%%%%%%%%%%%%%
 dielectric build on homogeneous background
 environment bulk permitt.  =    100.0000000 
 dielectric flags
 need gradient              =  F 
 need factor depend. sqrt   =  T 
 need gradient of logarithm =  T 

%%%% COMPUTE ELECTROSTATIC POTENTIAL %%%%%%%%%%%%%%%%%%%%%%%%%%%%%%%%%%%%%%%%%%%
 Warning: bad guess with residual norm =   0.262663E+04, reset to no guess
 Iteration #          1
  pAp =    1276.39457579293       rzold =    1273.17622470089       alpha = 
  0.997478560977081     
 delta_qm =   0.122786E+00 delta_en =   0.117234E+05 tol =   0.100000E-03
 Iteration #          2
  pAp =    2785.32416415714       rzold =    82.9382514093502       alpha = 
  2.977687569606384E-002
 delta_qm =   0.127470E+00 delta_en =   0.126349E+05 tol =   0.100000E-03
 Iteration #          3
  pAp =    21.8460373648550       rzold =    2.98101513761929       alpha = 
  0.136455645837859     
 delta_qm =   0.151039E+00 delta_en =   0.177392E+05 tol =   0.100000E-03
 Iteration #          4
  pAp =   -3.89977031094855       rzold =   0.729838373373563       alpha = 
 -0.187149066529522     
 delta_qm =   0.967945E-01 delta_en =   0.728547E+04 tol =   0.100000E-03
 Iteration #          5
  pAp =   0.530227463524270       rzold =  -0.424910933754890       alpha = 
 -0.801374811728213     
 delta_qm =   0.224609E-01 delta_en =   0.392293E+03 tol =   0.100000E-03
 Iteration #          6
  pAp =   0.647085936766175       rzold =   0.211893526803079       alpha = 
  0.327458092911153     
 delta_qm =   0.768861E-02 delta_en =   0.459677E+02 tol =   0.100000E-03
 Iteration #          7
  pAp =   4.075248779143598E-002  rzold =   1.816504892455455E-002  alpha = 
  0.445740859245700     
 delta_qm =   0.164388E-02 delta_en =   0.210133E+01 tol =   0.100000E-03
 Iteration #          8
  pAp =   3.606523381685905E-003  rzold =   1.674466187523962E-003  alpha = 
  0.464288182915153     
 delta_qm =   0.140132E-02 delta_en =   0.152696E+01 tol =   0.100000E-03
 Iteration #          9
  pAp =   7.599332485053665E-004  rzold =   2.912970995201647E-004  alpha = 
  0.383319324550000     
 delta_qm =   0.134131E-02 delta_en =   0.139898E+01 tol =   0.100000E-03
 Iteration #         10
  pAp =   1.885765402188359E-004  rzold =   1.315827543654463E-004  alpha = 
  0.697768419193339     
 delta_qm =   0.102143E-02 delta_en =   0.811280E+00 tol =   0.100000E-03
 Iteration #         11
  pAp =   1.828341500235789E-004  rzold =   1.795115078627349E-004  alpha = 
  0.981827015574412     
 delta_qm =   0.843019E-03 delta_en =   0.552625E+00 tol =   0.100000E-03
 Iteration #         12
  pAp =   3.948218194422648E-004  rzold =   2.198785462851728E-004  alpha = 
  0.556905762188571     
 delta_qm =   0.120007E-02 delta_en =   0.111987E+01 tol =   0.100000E-03
 Iteration #         13
  pAp =   7.096424434096373E-003  rzold =   3.618893380260197E-004  alpha = 
  5.099601093294825E-002
 delta_qm =   0.112071E-02 delta_en =   0.976660E+00 tol =   0.100000E-03
 Iteration #         14
  pAp =   5.418594738487933E-004  rzold =   2.349146181053954E-004  alpha = 
  0.433534208485480     
 delta_qm =   0.121715E-02 delta_en =   0.115199E+01 tol =   0.100000E-03
 Iteration #         15
  pAp =   2.595893525784780E-004  rzold =   1.726593126834088E-004  alpha = 
  0.665124786392043     
 delta_qm =   0.125162E-02 delta_en =   0.121815E+01 tol =   0.100000E-03
 Iteration #         16
  pAp =   2.320766549366568E-004  rzold =   2.404842020594435E-004  alpha = 
   1.03622745736783     
 delta_qm =   0.134455E-02 delta_en =   0.140575E+01 tol =   0.100000E-03
 Iteration #         17
  pAp =   4.374184795202036E-004  rzold =   3.613055441115166E-004  alpha = 
  0.825995153446251     
 delta_qm =   0.748045E-03 delta_en =   0.435123E+00 tol =   0.100000E-03
 Iteration #         18
  pAp =   4.268994161446389E-004  rzold =   2.111202425018580E-004  alpha = 
  0.494543291739541     
 delta_qm =   0.326870E-03 delta_en =   0.830817E-01 tol =   0.100000E-03
 Iteration #         19
  pAp =   5.566641852866603E-005  rzold =   2.591502238346052E-005  alpha = 
  0.465541399436633     
 delta_qm =   0.203060E-03 delta_en =   0.320631E-01 tol =   0.100000E-03
 Iteration #         20
  pAp =   8.879519630499466E-006  rzold =   4.238587742315555E-006  alpha = 
  0.477344261704970     
 delta_qm =   0.106058E-03 delta_en =   0.874665E-02 tol =   0.100000E-03
 Iteration #         21
  pAp =   1.399192179658904E-006  rzold =   9.402582419410540E-007  alpha = 
  0.672000784174101     
 delta_qm =   0.457680E-04 delta_en =   0.162885E-02 tol =   0.100000E-03
 Iteration #         22
  pAp =   7.861527719941647E-007  rzold =   3.793480406284370E-007  alpha = 
  0.482537305905795     
 delta_qm =   0.276097E-04 delta_en =   0.592760E-03 tol =   0.100000E-03
 Iteration #         23
  pAp =   1.469663986160753E-006  rzold =   1.441968036998272E-007  alpha = 
  9.811549106304006E-002
 delta_qm =   0.286177E-04 delta_en =   0.636834E-03 tol =   0.100000E-03
 Iteration #         24
  pAp =   1.649018956773493E-006  rzold =   2.937321602264557E-007  alpha = 
  0.178125399359373     
 delta_qm =   0.100800E-04 delta_en =   0.790098E-04 tol =   0.100000E-03
 Charges are converged, EXIT

%%%% ELECTRONS %%%%%%%%%%%%%%%%%%%%%%%%%%%%%%%%%%%%%%%%%%%%%%%%%%%%%%%%%%%%%%%%%
 number of electrons        =         89
 total electronic charge    =     89.0000000
 number of spin components  =  1

%%%% BOUNDARY %%%%%%%%%%%%%%%%%%%%%%%%%%%%%%%%%%%%%%%%%%%%%%%%%%%%%%%%%%%%%%%%%%
 boundary mode              = full                 
 boundary is built as a function of a smooth density
 function type              =  2 
 using the modified SCCS function with parameters 
 rhomax                     =      0.0050000 
 rhomin                     =      0.0001000 
 volume of the QM region    =   1499.3713338 
 surface of the QM region   =    287.8052617 

%%%% DIELECTRIC %%%%%%%%%%%%%%%%%%%%%%%%%%%%%%%%%%%%%%%%%%%%%%%%%%%%%%%%%%%%%%%%%
 dielectric build on homogeneous background
 environment bulk permitt.  =    100.0000000 
 dielectric flags
 need gradient              =  F 
 need factor depend. sqrt   =  T 
 need gradient of logarithm =  T 

%%%% COMPUTE ELECTROSTATIC POTENTIAL %%%%%%%%%%%%%%%%%%%%%%%%%%%%%%%%%%%%%%%%%%%
 Warning: bad guess with residual norm =   0.112355E+04, reset to no guess
 Iteration #          1
  pAp =    1273.85370296005       rzold =    1271.16347455617       alpha = 
  0.997888118237109     
 delta_qm =   0.131567E+00 delta_en =   0.134602E+05 tol =   0.100000E-03
 Iteration #          2
  pAp =    2219.12424933367       rzold =    64.2539878926814       alpha = 
  2.895465988980776E-002
 delta_qm =   0.145357E+00 delta_en =   0.164297E+05 tol =   0.100000E-03
 Iteration #          3
  pAp =    29.4122662432852       rzold =    3.34715499712226       alpha = 
  0.113801329330970     
 delta_qm =   0.168384E+00 delta_en =   0.220473E+05 tol =   0.100000E-03
 Iteration #          4
  pAp =   -2.66646376191563       rzold =   0.225052154719981       alpha = 
 -8.440098002993282E-002
 delta_qm =   0.139398E+00 delta_en =   0.151101E+05 tol =   0.100000E-03
 Iteration #          5
  pAp =   8.778405779920886E-002  rzold =  -0.168601938221734       alpha = 
  -1.92064416305957     
 delta_qm =   0.324895E-01 delta_en =   0.820808E+03 tol =   0.100000E-03
 Iteration #          6
  pAp =   0.609884143126774       rzold =   0.220295662658836       alpha = 
  0.361209034767516     
 delta_qm =   0.969583E-02 delta_en =   0.731014E+02 tol =   0.100000E-03
 Iteration #          7
  pAp =   5.924508197423074E-002  rzold =   2.374919931507621E-002  alpha = 
  0.400863641734957     
 delta_qm =   0.216174E-02 delta_en =   0.363382E+01 tol =   0.100000E-03
 Iteration #          8
  pAp =   5.955863636116003E-003  rzold =   2.525022703863988E-003  alpha = 
  0.423955761604816     
 delta_qm =   0.151565E-02 delta_en =   0.178631E+01 tol =   0.100000E-03
 Iteration #          9
  pAp =   1.226474837340091E-003  rzold =   3.974909723229557E-004  alpha = 
  0.324092235911673     
 delta_qm =   0.146275E-02 delta_en =   0.166378E+01 tol =   0.100000E-03
 Iteration #         10
  pAp =   2.356291337643097E-004  rzold =   1.397134622105022E-004  alpha = 
  0.592937978332730     
 delta_qm =   0.106581E-02 delta_en =   0.883310E+00 tol =   0.100000E-03
 Iteration #         11
  pAp =   1.008975402605377E-004  rzold =   1.067451962312348E-004  alpha = 
   1.05795637788193     
 delta_qm =   0.528502E-03 delta_en =   0.217195E+00 tol =   0.100000E-03
 Iteration #         12
  pAp =   1.874031186437089E-004  rzold =   8.960572987693342E-005  alpha = 
  0.478144283432615     
 delta_qm =   0.459059E-03 delta_en =   0.163868E+00 tol =   0.100000E-03
 Iteration #         13
  pAp =   1.035625913596708E-002  rzold =   4.328316886476416E-004  alpha = 
  4.179421188336490E-002
 delta_qm =   0.609831E-03 delta_en =   0.289184E+00 tol =   0.100000E-03
 Iteration #         14
  pAp =   1.033302501627927E-004  rzold =   5.568861018121923E-005  alpha = 
  0.538938114380678     
 delta_qm =   0.665770E-03 delta_en =   0.344671E+00 tol =   0.100000E-03
 Iteration #         15
  pAp =   4.106350620147465E-005  rzold =   3.293217066620842E-005  alpha = 
  0.801981460244273     
 delta_qm =   0.776906E-03 delta_en =   0.469346E+00 tol =   0.100000E-03
 Iteration #         16
  pAp =   6.948227213771430E-005  rzold =   6.717719522404843E-005  alpha = 
  0.966824963508718     
 delta_qm =   0.964918E-03 delta_en =   0.723998E+00 tol =   0.100000E-03
 Iteration #         17
  pAp =   1.142887508081902E-004  rzold =   1.633176217327781E-004  alpha = 
   1.42899122247712     
 delta_qm =   0.107591E-02 delta_en =   0.900144E+00 tol =   0.100000E-03
 Iteration #         18
  pAp =   4.909407277119961E-004  rzold =   3.979684283514443E-004  alpha = 
  0.810624187172565     
 delta_qm =   0.112817E-02 delta_en =   0.989696E+00 tol =   0.100000E-03
 Iteration #         19
  pAp =   2.380574037011050E-004  rzold =   1.427742925548069E-004  alpha = 
  0.599747331253215     
 delta_qm =   0.669356E-03 delta_en =   0.348394E+00 tol =   0.100000E-03
 Iteration #         20
  pAp =   6.976804957930134E-005  rzold =   3.803572804083133E-005  alpha = 
  0.545174019772450     
 delta_qm =   0.400744E-03 delta_en =   0.124879E+00 tol =   0.100000E-03
 Iteration #         21
  pAp =   2.202884797597200E-005  rzold =   1.348322183504415E-005  alpha = 
  0.612071128265582     
 delta_qm =   0.216257E-03 delta_en =   0.363662E-01 tol =   0.100000E-03
 Iteration #         22
  pAp =   8.926473935999121E-006  rzold =   5.073331827575709E-006  alpha = 
  0.568346680217788     
 delta_qm =   0.100993E-03 delta_en =   0.793123E-02 tol =   0.100000E-03
 Iteration #         23
  pAp =   4.082387355002487E-006  rzold =   1.666572169274528E-006  alpha = 
  0.408234698070074     
 delta_qm =   0.513739E-04 delta_en =   0.205230E-02 tol =   0.100000E-03
 Iteration #         24
  pAp =   1.658214776312527E-005  rzold =   1.137756406124545E-006  alpha = 
  6.861333178170340E-002
 delta_qm =   0.419523E-04 delta_en =   0.136857E-02 tol =   0.100000E-03
 Iteration #         25
  pAp =   1.354030487220808E-005  rzold =   1.101844118966260E-006  alpha = 
  8.137513367426691E-002
 delta_qm =   0.301019E-04 delta_en =   0.704600E-03 tol =   0.100000E-03
 Iteration #         26
  pAp =   3.555938945725871E-007  rzold =   1.334291698488165E-007  alpha = 
  0.375229079816441     
 delta_qm =   0.210410E-04 delta_en =   0.344262E-03 tol =   0.100000E-03
 Iteration #         27
  pAp =   9.762597464312611E-008  rzold =   4.672866601028294E-008  alpha = 
  0.478649930831427     
 delta_qm =   0.140605E-04 delta_en =   0.153729E-03 tol =   0.100000E-03
 Iteration #         28
  pAp =   1.361639574823844E-008  rzold =   1.081283450673316E-008  alpha = 
  0.794104013033847     
 delta_qm =   0.629198E-05 delta_en =   0.307844E-04 tol =   0.100000E-03
 Charges are converged, EXIT

%%%% ELECTRONS %%%%%%%%%%%%%%%%%%%%%%%%%%%%%%%%%%%%%%%%%%%%%%%%%%%%%%%%%%%%%%%%%
 number of electrons        =         89
 total electronic charge    =     89.0000000
 number of spin components  =  1

%%%% BOUNDARY %%%%%%%%%%%%%%%%%%%%%%%%%%%%%%%%%%%%%%%%%%%%%%%%%%%%%%%%%%%%%%%%%%
 boundary mode              = full                 
 boundary is built as a function of a smooth density
 function type              =  2 
 using the modified SCCS function with parameters 
 rhomax                     =      0.0050000 
 rhomin                     =      0.0001000 
 volume of the QM region    =   1492.4020237 
 surface of the QM region   =    288.6060281 

%%%% DIELECTRIC %%%%%%%%%%%%%%%%%%%%%%%%%%%%%%%%%%%%%%%%%%%%%%%%%%%%%%%%%%%%%%%%%
 dielectric build on homogeneous background
 environment bulk permitt.  =    100.0000000 
 dielectric flags
 need gradient              =  F 
 need factor depend. sqrt   =  T 
 need gradient of logarithm =  T 

%%%% COMPUTE ELECTROSTATIC POTENTIAL %%%%%%%%%%%%%%%%%%%%%%%%%%%%%%%%%%%%%%%%%%%
 Warning: bad guess with residual norm =   0.207344E+03, reset to no guess
 Iteration #          1
  pAp =    1272.65010839631       rzold =    1270.07026423225       alpha = 
  0.997972856681466     
 delta_qm =   0.128067E+00 delta_en =   0.127536E+05 tol =   0.100000E-03
 Iteration #          2
  pAp =    2097.43275453619       rzold =    61.0038898424188       alpha = 
  2.908502773711514E-002
 delta_qm =   0.135919E+00 delta_en =   0.143653E+05 tol =   0.100000E-03
 Iteration #          3
  pAp =    33.2831173428613       rzold =    3.74537895871357       alpha = 
  0.112530894270842     
 delta_qm =   0.155634E+00 delta_en =   0.188349E+05 tol =   0.100000E-03
 Iteration #          4
  pAp =   -2.91444168887908       rzold =   0.383617700135754       alpha = 
 -0.131626479815864     
 delta_qm =   0.115034E+00 delta_en =   0.102898E+05 tol =   0.100000E-03
 Iteration #          5
  pAp =   0.215635781064354       rzold =  -0.254811197458466       alpha = 
  -1.18167400697948     
 delta_qm =   0.279073E-01 delta_en =   0.605610E+03 tol =   0.100000E-03
 Iteration #          6
  pAp =   0.530109912486164       rzold =   0.194425288220647       alpha = 
  0.366764106162081     
 delta_qm =   0.851381E-02 delta_en =   0.563643E+02 tol =   0.100000E-03
 Iteration #          7
  pAp =   5.111142432384892E-002  rzold =   2.008591336622170E-002  alpha = 
  0.392982853284515     
 delta_qm =   0.220760E-02 delta_en =   0.378962E+01 tol =   0.100000E-03
 Iteration #          8
  pAp =   5.974041833905598E-003  rzold =   2.532600135281086E-003  alpha = 
  0.423934114573378     
 delta_qm =   0.153668E-02 delta_en =   0.183620E+01 tol =   0.100000E-03
 Iteration #          9
  pAp =   4.930547554619707E-004  rzold =   2.563981145784078E-004  alpha = 
  0.520019555106357     
 delta_qm =   0.137546E-02 delta_en =   0.147114E+01 tol =   0.100000E-03
 Iteration #         10
  pAp =   1.354771739170756E-004  rzold =   1.088238271787994E-004  alpha = 
  0.803263192110942     
 delta_qm =   0.833923E-03 delta_en =   0.540764E+00 tol =   0.100000E-03
 Iteration #         11
  pAp =   2.929795504885517E-004  rzold =   1.595632995658102E-004  alpha = 
  0.544622651307007     
 delta_qm =   0.546913E-03 delta_en =   0.232591E+00 tol =   0.100000E-03
 Iteration #         12
  pAp =   2.405379463327695E-004  rzold =   1.122794268337888E-004  alpha = 
  0.466784673876184     
 delta_qm =   0.594708E-03 delta_en =   0.275020E+00 tol =   0.100000E-03
 Iteration #         13
  pAp =   1.212582974489959E-004  rzold =   5.455592838403128E-005  alpha = 
  0.449915012265274     
 delta_qm =   0.690027E-03 delta_en =   0.370245E+00 tol =   0.100000E-03
 Iteration #         14
  pAp =   3.705634307712691E-003  rzold =   1.429296868382151E-004  alpha = 
  3.857090985495510E-002
 delta_qm =   0.561170E-03 delta_en =   0.244875E+00 tol =   0.100000E-03
 Iteration #         15
  pAp =   4.709729885360766E-005  rzold =   3.226040228992078E-005  alpha = 
  0.684973513878060     
 delta_qm =   0.640124E-03 delta_en =   0.318628E+00 tol =   0.100000E-03
 Iteration #         16
  pAp =   4.032555828194685E-005  rzold =   4.334699177559251E-005  alpha = 
   1.07492601770124     
 delta_qm =   0.792746E-03 delta_en =   0.488679E+00 tol =   0.100000E-03
 Iteration #         17
  pAp =   9.508051944985313E-005  rzold =   1.144996843802321E-004  alpha = 
   1.20423915479996     
 delta_qm =   0.101252E-02 delta_en =   0.797187E+00 tol =   0.100000E-03
 Iteration #         18
  pAp =   3.802669704578256E-004  rzold =   3.116036918910764E-004  alpha = 
  0.819434018989129     
 delta_qm =   0.104025E-02 delta_en =   0.841449E+00 tol =   0.100000E-03
 Iteration #         19
  pAp =   2.950053953392152E-004  rzold =   1.537660132581792E-004  alpha = 
  0.521231189963050     
 delta_qm =   0.763958E-03 delta_en =   0.453832E+00 tol =   0.100000E-03
 Iteration #         20
  pAp =   9.213985179905748E-005  rzold =   4.962564441945081E-005  alpha = 
  0.538590451910825     
 delta_qm =   0.431087E-03 delta_en =   0.144506E+00 tol =   0.100000E-03
 Iteration #         21
  pAp =   2.234887947036940E-005  rzold =   1.589408551398605E-005  alpha = 
  0.711180421150812     
 delta_qm =   0.227296E-03 delta_en =   0.401734E-01 tol =   0.100000E-03
 Iteration #         22
  pAp =   1.371220774593163E-005  rzold =   7.219901148271992E-006  alpha = 
  0.526530904581293     
 delta_qm =   0.120223E-03 delta_en =   0.112391E-01 tol =   0.100000E-03
 Iteration #         23
  pAp =   5.012630232045457E-006  rzold =   2.471048635516739E-006  alpha = 
  0.492964475959042     
 delta_qm =   0.596270E-04 delta_en =   0.276466E-02 tol =   0.100000E-03
 Iteration #         24
  pAp =   6.211906549084634E-006  rzold =   7.597644178781275E-007  alpha = 
  0.122307766846570     
 delta_qm =   0.599578E-04 delta_en =   0.279543E-02 tol =   0.100000E-03
 Iteration #         25
  pAp =   2.120560446648570E-005  rzold =   1.720140341791356E-006  alpha = 
  8.111725107906943E-002
 delta_qm =   0.444404E-04 delta_en =   0.153572E-02 tol =   0.100000E-03
 Iteration #         26
  pAp =   1.633827950262408E-006  rzold =   3.539483785500051E-007  alpha = 
  0.216637485295289     
 delta_qm =   0.348892E-04 delta_en =   0.946540E-03 tol =   0.100000E-03
 Iteration #         27
  pAp =   1.886750643632427E-007  rzold =   1.111765125061581E-007  alpha = 
  0.589248573368009     
 delta_qm =   0.197660E-04 delta_en =   0.303803E-03 tol =   0.100000E-03
 Iteration #         28
  pAp =   6.815888694396789E-008  rzold =   3.105171030840613E-008  alpha = 
  0.455578306816148     
 delta_qm =   0.185749E-04 delta_en =   0.268292E-03 tol =   0.100000E-03
 Iteration #         29
  pAp =   5.046875129712876E-009  rzold =  -2.508118726758329E-008  alpha = 
  -4.96964688504393     
 delta_qm =   0.206673E-03 delta_en =   0.332143E-01 tol =   0.100000E-03
 Iteration #         30
  pAp =  -6.205890455205433E-005  rzold =   2.761397933462983E-006  alpha = 
 -4.449640149781812E-002
 delta_qm =   0.219734E-04 delta_en =   0.375451E-03 tol =   0.100000E-03
 Iteration #         31
  pAp =   3.504142036152946E-008  rzold =   2.597725122055304E-008  alpha = 
  0.741329859136429     
 delta_qm =   0.979719E-05 delta_en =   0.746379E-04 tol =   0.100000E-03
 Charges are converged, EXIT

%%%% ELECTRONS %%%%%%%%%%%%%%%%%%%%%%%%%%%%%%%%%%%%%%%%%%%%%%%%%%%%%%%%%%%%%%%%%
 number of electrons        =         89
 total electronic charge    =     89.0000000
 number of spin components  =  1

%%%% BOUNDARY %%%%%%%%%%%%%%%%%%%%%%%%%%%%%%%%%%%%%%%%%%%%%%%%%%%%%%%%%%%%%%%%%%
 boundary mode              = full                 
 boundary is built as a function of a smooth density
 function type              =  2 
 using the modified SCCS function with parameters 
 rhomax                     =      0.0050000 
 rhomin                     =      0.0001000 
 volume of the QM region    =   1485.4994509 
 surface of the QM region   =    275.7914605 

%%%% DIELECTRIC %%%%%%%%%%%%%%%%%%%%%%%%%%%%%%%%%%%%%%%%%%%%%%%%%%%%%%%%%%%%%%%%%
 dielectric build on homogeneous background
 environment bulk permitt.  =    100.0000000 
 dielectric flags
 need gradient              =  F 
 need factor depend. sqrt   =  T 
 need gradient of logarithm =  T 

%%%% COMPUTE ELECTROSTATIC POTENTIAL %%%%%%%%%%%%%%%%%%%%%%%%%%%%%%%%%%%%%%%%%%%
 Warning: bad guess with residual norm =   0.985760E+02, reset to no guess
 Iteration #          1
  pAp =    1271.85630212547       rzold =    1269.44859674451       alpha = 
  0.998106935998244     
 delta_qm =   0.108895E+00 delta_en =   0.922090E+04 tol =   0.100000E-03
 Iteration #          2
  pAp =    1771.57371228498       rzold =    54.2314047689132       alpha = 
  3.061199451811994E-002
 delta_qm =   0.110049E+00 delta_en =   0.941731E+04 tol =   0.100000E-03
 Iteration #          3
  pAp =    35.1692799436069       rzold =    4.25863528781269       alpha = 
  0.121089635461440     
 delta_qm =   0.120753E+00 delta_en =   0.113384E+05 tol =   0.100000E-03
 Iteration #          4
  pAp =   -3.30540833270284       rzold =   0.836515875126602       alpha = 
 -0.253074897539990     
 delta_qm =   0.699006E-01 delta_en =   0.379943E+04 tol =   0.100000E-03
 Iteration #          5
  pAp =   0.989063232677029       rzold =  -0.560890212063026       alpha = 
 -0.567092369357319     
 delta_qm =   0.163945E-01 delta_en =   0.209003E+03 tol =   0.100000E-03
 Iteration #          6
  pAp =   0.525653190198908       rzold =   0.178591032651153       alpha = 
  0.339750687299308     
 delta_qm =   0.556897E-02 delta_en =   0.241160E+02 tol =   0.100000E-03
 Iteration #          7
  pAp =   3.997619418686821E-002  rzold =   1.549076950882989E-002  alpha = 
  0.387499856450028     
 delta_qm =   0.169688E-02 delta_en =   0.223903E+01 tol =   0.100000E-03
 Iteration #          8
  pAp =   4.890115070978530E-003  rzold =   2.050932159052029E-003  alpha = 
  0.419403660094573     
 delta_qm =   0.111515E-02 delta_en =   0.966988E+00 tol =   0.100000E-03
 Iteration #          9
  pAp =   1.199769708350198E-003  rzold =   3.906065383413567E-004  alpha = 
  0.325567928263899     
 delta_qm =   0.112166E-02 delta_en =   0.978307E+00 tol =   0.100000E-03
 Iteration #         10
  pAp =   2.324314409054855E-004  rzold =   1.334126909641793E-004  alpha = 
  0.573987281774110     
 delta_qm =   0.917081E-03 delta_en =   0.653990E+00 tol =   0.100000E-03
 Iteration #         11
  pAp =   8.538307081151444E-005  rzold =   9.516990114149793E-005  alpha = 
   1.11462260887276     
 delta_qm =   0.463646E-03 delta_en =   0.167159E+00 tol =   0.100000E-03
 Iteration #         12
  pAp =   1.409395734096825E-004  rzold =   8.494991659072779E-005  alpha = 
  0.602739986616788     
 delta_qm =   0.495357E-03 delta_en =   0.190806E+00 tol =   0.100000E-03
 Iteration #         13
  pAp =   1.011116864607260E-004  rzold =   3.864849885741527E-005  alpha = 
  0.382235725762790     
 delta_qm =   0.389254E-03 delta_en =   0.117821E+00 tol =   0.100000E-03
 Iteration #         14
  pAp =   3.736357662117477E-003  rzold =   1.782015293080536E-004  alpha = 
  4.769391622082101E-002
 delta_qm =   0.497212E-03 delta_en =   0.192238E+00 tol =   0.100000E-03
 Iteration #         15
  pAp =   2.431809048848524E-005  rzold =   2.693272400178385E-005  alpha = 
   1.10751804359543     
 delta_qm =   0.537843E-03 delta_en =   0.224941E+00 tol =   0.100000E-03
 Iteration #         16
  pAp =   5.745492589952413E-005  rzold =   6.088350012843235E-005  alpha = 
   1.05967415631001     
 delta_qm =   0.724120E-03 delta_en =   0.407735E+00 tol =   0.100000E-03
 Iteration #         17
  pAp =   1.704846145993862E-004  rzold =   1.461383175495309E-004  alpha = 
  0.857193582499714     
 delta_qm =   0.825450E-03 delta_en =   0.529832E+00 tol =   0.100000E-03
 Iteration #         18
  pAp =   4.919614229203778E-004  rzold =   2.682066888582608E-004  alpha = 
  0.545178293180254     
 delta_qm =   0.559840E-03 delta_en =   0.243716E+00 tol =   0.100000E-03
 Iteration #         19
  pAp =   1.796087837296690E-004  rzold =   8.658044637151550E-005  alpha = 
  0.482050179137278     
 delta_qm =   0.358389E-03 delta_en =   0.998769E-01 tol =   0.100000E-03
 Iteration #         20
  pAp =   3.485150847077119E-005  rzold =   1.815796922192628E-005  alpha = 
  0.521009563679425     
 delta_qm =   0.234330E-03 delta_en =   0.426986E-01 tol =   0.100000E-03
 Iteration #         21
  pAp =   5.510813124344695E-006  rzold =   4.718484539017353E-006  alpha = 
  0.856222926190850     
 delta_qm =   0.108489E-03 delta_en =   0.915232E-02 tol =   0.100000E-03
 Iteration #         22
  pAp =   3.754153557228081E-006  rzold =   2.187712127261949E-006  alpha = 
  0.582744443963893     
 delta_qm =   0.588298E-04 delta_en =   0.269123E-02 tol =   0.100000E-03
 Iteration #         23
  pAp =   1.146202168336117E-006  rzold =   6.219229663816732E-007  alpha = 
  0.542594477276628     
 delta_qm =   0.405503E-04 delta_en =   0.127863E-02 tol =   0.100000E-03
 Iteration #         24
  pAp =   3.571330496815477E-006  rzold =   2.405686212357822E-007  alpha = 
  6.736106374089293E-002
 delta_qm =   0.365472E-04 delta_en =   0.103864E-02 tol =   0.100000E-03
 Iteration #         25
  pAp =   1.219513797189415E-006  rzold =   2.988911385558848E-007  alpha = 
  0.245090411641699     
 delta_qm =   0.230603E-04 delta_en =   0.413509E-03 tol =   0.100000E-03
 Iteration #         26
  pAp =   3.058696726261706E-007  rzold =   1.016791697513258E-007  alpha = 
  0.332426451038173     
 delta_qm =   0.176420E-04 delta_en =   0.242020E-03 tol =   0.100000E-03
 Iteration #         27
  pAp =   2.810692308493613E-007  rzold =   7.868684907559645E-008  alpha = 
  0.279955400446407     
 delta_qm =   0.137334E-04 delta_en =   0.146660E-03 tol =   0.100000E-03
 Iteration #         28
  pAp =   3.416886885025980E-008  rzold =   2.691647648226582E-008  alpha = 
  0.787748538010534     
 delta_qm =   0.110289E-04 delta_en =   0.945852E-04 tol =   0.100000E-03
 Charges are converged, EXIT

%%%% ELECTRONS %%%%%%%%%%%%%%%%%%%%%%%%%%%%%%%%%%%%%%%%%%%%%%%%%%%%%%%%%%%%%%%%%
 number of electrons        =         89
 total electronic charge    =     89.0000000
 number of spin components  =  1

%%%% BOUNDARY %%%%%%%%%%%%%%%%%%%%%%%%%%%%%%%%%%%%%%%%%%%%%%%%%%%%%%%%%%%%%%%%%%
 boundary mode              = full                 
 boundary is built as a function of a smooth density
 function type              =  2 
 using the modified SCCS function with parameters 
 rhomax                     =      0.0050000 
 rhomin                     =      0.0001000 
 volume of the QM region    =   1479.7234066 
 surface of the QM region   =    271.4724017 

%%%% DIELECTRIC %%%%%%%%%%%%%%%%%%%%%%%%%%%%%%%%%%%%%%%%%%%%%%%%%%%%%%%%%%%%%%%%%
 dielectric build on homogeneous background
 environment bulk permitt.  =    100.0000000 
 dielectric flags
 need gradient              =  F 
 need factor depend. sqrt   =  T 
 need gradient of logarithm =  T 

%%%% COMPUTE ELECTROSTATIC POTENTIAL %%%%%%%%%%%%%%%%%%%%%%%%%%%%%%%%%%%%%%%%%%%
 Warning: bad guess with residual norm =   0.343183E+02, reset to no guess
 Iteration #          1
  pAp =    1272.19109873163       rzold =    1269.68222650195       alpha = 
  0.998027912447913     
 delta_qm =   0.986328E-01 delta_en =   0.756482E+04 tol =   0.100000E-03
 Iteration #          2
  pAp =    1787.31844830766       rzold =    55.4550695956975       alpha = 
  3.102696648613780E-002
 delta_qm =   0.995728E-01 delta_en =   0.770971E+04 tol =   0.100000E-03
 Iteration #          3
  pAp =    41.0066368758398       rzold =    4.82092752382048       alpha = 
  0.117564567375211     
 delta_qm =   0.106344E+00 delta_en =   0.879398E+04 tol =   0.100000E-03
 Iteration #          4
  pAp =   -2.93609556181337       rzold =   0.829821326350189       alpha = 
 -0.282627492491314     
 delta_qm =   0.599043E-01 delta_en =   0.279043E+04 tol =   0.100000E-03
 Iteration #          5
  pAp =    1.18955126451339       rzold =  -0.602472627776078       alpha = 
 -0.506470503415029     
 delta_qm =   0.149116E-01 delta_en =   0.172903E+03 tol =   0.100000E-03
 Iteration #          6
  pAp =   0.645792634677709       rzold =   0.213169750541024       alpha = 
  0.330090092537846     
 delta_qm =   0.503718E-02 delta_en =   0.197301E+02 tol =   0.100000E-03
 Iteration #          7
  pAp =   4.174649253026126E-002  rzold =   1.610468133840181E-002  alpha = 
  0.385773279676797     
 delta_qm =   0.155598E-02 delta_en =   0.188264E+01 tol =   0.100000E-03
 Iteration #          8
  pAp =   4.746852174264625E-003  rzold =   2.033223373957327E-003  alpha = 
  0.428330881037455     
 delta_qm =   0.990290E-03 delta_en =   0.762572E+00 tol =   0.100000E-03
 Iteration #          9
  pAp =   1.203669484584168E-003  rzold =   3.999974006192895E-004  alpha = 
  0.332314979936105     
 delta_qm =   0.981495E-03 delta_en =   0.749088E+00 tol =   0.100000E-03
 Iteration #         10
  pAp =   2.683891164753667E-004  rzold =   1.381905876994472E-004  alpha = 
  0.514888940036921     
 delta_qm =   0.827980E-03 delta_en =   0.533084E+00 tol =   0.100000E-03
 Iteration #         11
  pAp =   8.269953987221070E-005  rzold =   8.629580809676827E-005  alpha = 
   1.04348595203933     
 delta_qm =   0.422842E-03 delta_en =   0.139031E+00 tol =   0.100000E-03
 Iteration #         12
  pAp =   1.313029732592866E-004  rzold =   7.923194516799892E-005  alpha = 
  0.603428415985204     
 delta_qm =   0.372625E-03 delta_en =   0.107969E+00 tol =   0.100000E-03
 Iteration #         13
  pAp =   1.650721860122834E-004  rzold =   3.420993300690786E-005  alpha = 
  0.207242260694132     
 delta_qm =   0.285608E-03 delta_en =   0.634303E-01 tol =   0.100000E-03
 Iteration #         14
  pAp =   1.770930074984941E-003  rzold =   1.366823701836722E-004  alpha = 
  7.718112200722237E-002
 delta_qm =   0.366338E-03 delta_en =   0.104357E+00 tol =   0.100000E-03
 Iteration #         15
  pAp =   2.423000682067170E-005  rzold =   1.840274876069989E-005  alpha = 
  0.759502417679870     
 delta_qm =   0.378912E-03 delta_en =   0.111643E+00 tol =   0.100000E-03
 Iteration #         16
  pAp =   4.250106069637272E-005  rzold =   3.718592751625463E-005  alpha = 
  0.874941163984368     
 delta_qm =   0.472610E-03 delta_en =   0.173685E+00 tol =   0.100000E-03
 Iteration #         17
  pAp =   5.813944591235207E-005  rzold =   6.333242468566134E-005  alpha = 
   1.08931937158703     
 delta_qm =   0.580155E-03 delta_en =   0.261725E+00 tol =   0.100000E-03
 Iteration #         18
  pAp =   1.942449714608397E-004  rzold =   1.224928118170771E-004  alpha = 
  0.630609950393346     
 delta_qm =   0.366740E-03 delta_en =   0.104586E+00 tol =   0.100000E-03
 Iteration #         19
  pAp =   9.087752565231314E-005  rzold =   4.574824214768396E-005  alpha = 
  0.503405454971468     
 delta_qm =   0.212548E-03 delta_en =   0.351292E-01 tol =   0.100000E-03
 Iteration #         20
  pAp =   1.674456796534393E-005  rzold =   8.645530320237512E-006  alpha = 
  0.516318506284013     
 delta_qm =   0.140005E-03 delta_en =   0.152421E-01 tol =   0.100000E-03
 Iteration #         21
  pAp =   2.242902142467860E-006  rzold =   1.902518609027298E-006  alpha = 
  0.848239685987353     
 delta_qm =   0.654290E-04 delta_en =   0.332887E-02 tol =   0.100000E-03
 Iteration #         22
  pAp =   1.581849134685407E-006  rzold =   9.632843908975067E-007  alpha = 
  0.608960974707036     
 delta_qm =   0.367392E-04 delta_en =   0.104958E-02 tol =   0.100000E-03
 Iteration #         23
  pAp =   8.438402765656724E-007  rzold =   3.297978785666455E-007  alpha = 
  0.390829743169979     
 delta_qm =   0.285178E-04 delta_en =   0.632394E-03 tol =   0.100000E-03
 Iteration #         24
  pAp =   1.862341939084338E-006  rzold =   2.661965524497543E-007  alpha = 
  0.142936453753834     
 delta_qm =   0.225713E-04 delta_en =   0.396159E-03 tol =   0.100000E-03
 Iteration #         25
  pAp =   7.804018438597629E-006  rzold =   3.586738241732854E-007  alpha = 
  4.596014566025790E-002
 delta_qm =   0.215996E-04 delta_en =   0.362785E-03 tol =   0.100000E-03
 Iteration #         26
  pAp =   8.890049268815449E-008  rzold =   5.482823334962702E-008  alpha = 
  0.616737114629429     
 delta_qm =   0.113787E-04 delta_en =   0.100679E-03 tol =   0.100000E-03
 Iteration #         27
  pAp =   5.222220882964658E-008  rzold =   2.691464568165619E-008  alpha = 
  0.515386964374757     
 delta_qm =   0.691419E-05 delta_en =   0.371739E-04 tol =   0.100000E-03
 Charges are converged, EXIT

%%%% ELECTRONS %%%%%%%%%%%%%%%%%%%%%%%%%%%%%%%%%%%%%%%%%%%%%%%%%%%%%%%%%%%%%%%%%
 number of electrons        =         89
 total electronic charge    =     89.0000000
 number of spin components  =  1

%%%% BOUNDARY %%%%%%%%%%%%%%%%%%%%%%%%%%%%%%%%%%%%%%%%%%%%%%%%%%%%%%%%%%%%%%%%%%
 boundary mode              = full                 
 boundary is built as a function of a smooth density
 function type              =  2 
 using the modified SCCS function with parameters 
 rhomax                     =      0.0050000 
 rhomin                     =      0.0001000 
 volume of the QM region    =   1479.0916014 
 surface of the QM region   =    270.3071729 

%%%% DIELECTRIC %%%%%%%%%%%%%%%%%%%%%%%%%%%%%%%%%%%%%%%%%%%%%%%%%%%%%%%%%%%%%%%%%
 dielectric build on homogeneous background
 environment bulk permitt.  =    100.0000000 
 dielectric flags
 need gradient              =  F 
 need factor depend. sqrt   =  T 
 need gradient of logarithm =  T 

%%%% COMPUTE ELECTROSTATIC POTENTIAL %%%%%%%%%%%%%%%%%%%%%%%%%%%%%%%%%%%%%%%%%%%
 Warning: bad guess with residual norm =   0.146490E+01, reset to no guess
 Iteration #          1
  pAp =    1272.57728984089       rzold =    1269.95459505549       alpha = 
  0.997939068372241     
 delta_qm =   0.962833E-01 delta_en =   0.720872E+04 tol =   0.100000E-03
 Iteration #          2
  pAp =    1930.49355994492       rzold =    59.5819766999153       alpha = 
  3.086359775352748E-002
 delta_qm =   0.938030E-01 delta_en =   0.684210E+04 tol =   0.100000E-03
 Iteration #          3
  pAp =    39.5474859582728       rzold =    4.73381565683009       alpha = 
  0.119699534423625     
 delta_qm =   0.100240E+00 delta_en =   0.781334E+04 tol =   0.100000E-03
 Iteration #          4
  pAp =   -2.93022752274975       rzold =   0.851608819155535       alpha = 
 -0.290628905961670     
 delta_qm =   0.561994E-01 delta_en =   0.245595E+04 tol =   0.100000E-03
 Iteration #          5
  pAp =    1.28078027784138       rzold =  -0.633248607035343       alpha = 
 -0.494424077252828     
 delta_qm =   0.141843E-01 delta_en =   0.156450E+03 tol =   0.100000E-03
 Iteration #          6
  pAp =   0.649618880862323       rzold =   0.212000909835193       alpha = 
  0.326346595027806     
 delta_qm =   0.463977E-02 delta_en =   0.167398E+02 tol =   0.100000E-03
 Iteration #          7
  pAp =   3.962984551471332E-002  rzold =   1.541009591011282E-002  alpha = 
  0.388850769160620     
 delta_qm =   0.146575E-02 delta_en =   0.167061E+01 tol =   0.100000E-03
 Iteration #          8
  pAp =   4.494913558011636E-003  rzold =   1.934264706688992E-003  alpha = 
  0.430323004374890     
 delta_qm =   0.931292E-03 delta_en =   0.674417E+00 tol =   0.100000E-03
 Iteration #          9
  pAp =   1.204193071506516E-003  rzold =   3.983797553112677E-004  alpha = 
  0.330827144531625     
 delta_qm =   0.929534E-03 delta_en =   0.671872E+00 tol =   0.100000E-03
 Iteration #         10
  pAp =   2.588065401668588E-004  rzold =   1.350470041006554E-004  alpha = 
  0.521806767377622     
 delta_qm =   0.788221E-03 delta_en =   0.483117E+00 tol =   0.100000E-03
 Iteration #         11
  pAp =   8.322397471796121E-005  rzold =   8.655837433046514E-005  alpha = 
   1.04006537327500     
 delta_qm =   0.419892E-03 delta_en =   0.137098E+00 tol =   0.100000E-03
 Iteration #         12
  pAp =   1.337185829850177E-004  rzold =   8.008198243214579E-005  alpha = 
  0.598884467995884     
 delta_qm =   0.306624E-03 delta_en =   0.731087E-01 tol =   0.100000E-03
 Iteration #         13
  pAp =   2.024892160160058E-003  rzold =   8.807632504178823E-005  alpha = 
  4.349679789111645E-002
 delta_qm =   0.386642E-03 delta_en =   0.116245E+00 tol =   0.100000E-03
 Iteration #         14
  pAp =   9.993267669978385E-005  rzold =   4.112522874134232E-005  alpha = 
  0.411529342548184     
 delta_qm =   0.373325E-03 delta_en =   0.108375E+00 tol =   0.100000E-03
 Iteration #         15
  pAp =   2.245909101895396E-005  rzold =   1.935817539560470E-005  alpha = 
  0.861930493058143     
 delta_qm =   0.387897E-03 delta_en =   0.117001E+00 tol =   0.100000E-03
 Iteration #         16
  pAp =   6.011030005808116E-005  rzold =   4.854354735750729E-005  alpha = 
  0.807574530664502     
 delta_qm =   0.486203E-03 delta_en =   0.183819E+00 tol =   0.100000E-03
 Iteration #         17
  pAp =   5.193684837533275E-005  rzold =   6.818336518662784E-005  alpha = 
   1.31281291259505     
 delta_qm =   0.546963E-03 delta_en =   0.232633E+00 tol =   0.100000E-03
 Iteration #         18
  pAp =   1.998373421497874E-004  rzold =   1.039506733107708E-004  alpha = 
  0.520176420445258     
 delta_qm =   0.289708E-03 delta_en =   0.652647E-01 tol =   0.100000E-03
 Iteration #         19
  pAp =   8.333304824869456E-005  rzold =   3.607468723545058E-005  alpha = 
  0.432897727775315     
 delta_qm =   0.192427E-03 delta_en =   0.287932E-01 tol =   0.100000E-03
 Iteration #         20
  pAp =   1.438589261440688E-005  rzold =   7.205717346270283E-006  alpha = 
  0.500887747420974     
 delta_qm =   0.127855E-03 delta_en =   0.127113E-01 tol =   0.100000E-03
 Iteration #         21
  pAp =   1.975738936268937E-006  rzold =   1.740919678302240E-006  alpha = 
  0.881148640816818     
 delta_qm =   0.627625E-04 delta_en =   0.306307E-02 tol =   0.100000E-03
 Iteration #         22
  pAp =   1.538417395852397E-006  rzold =   9.558584449163298E-007  alpha = 
  0.621325816708354     
 delta_qm =   0.359686E-04 delta_en =   0.100601E-02 tol =   0.100000E-03
 Iteration #         23
  pAp =   1.184103805468316E-006  rzold =   3.186292970281595E-007  alpha = 
  0.269088989965826     
 delta_qm =   0.344990E-04 delta_en =   0.925487E-03 tol =   0.100000E-03
 Iteration #         24
  pAp =   2.398327758926323E-005  rzold =   1.397511508143257E-006  alpha = 
  5.827024696444708E-002
 delta_qm =   0.249042E-04 delta_en =   0.482284E-03 tol =   0.100000E-03
 Iteration #         25
  pAp =   1.508638112865939E-007  rzold =   7.163744192333101E-008  alpha = 
  0.474848416677226     
 delta_qm =   0.170994E-04 delta_en =   0.227361E-03 tol =   0.100000E-03
 Iteration #         26
  pAp =   3.144287235791839E-007  rzold =   8.033583591227495E-008  alpha = 
  0.255497764319371     
 delta_qm =   0.102397E-04 delta_en =   0.815321E-04 tol =   0.100000E-03
 Charges are converged, EXIT

%%%% ELECTRONS %%%%%%%%%%%%%%%%%%%%%%%%%%%%%%%%%%%%%%%%%%%%%%%%%%%%%%%%%%%%%%%%%
 number of electrons        =         89
 total electronic charge    =     89.0000000
 number of spin components  =  1

%%%% BOUNDARY %%%%%%%%%%%%%%%%%%%%%%%%%%%%%%%%%%%%%%%%%%%%%%%%%%%%%%%%%%%%%%%%%%
 boundary mode              = full                 
 boundary is built as a function of a smooth density
 function type              =  2 
 using the modified SCCS function with parameters 
 rhomax                     =      0.0050000 
 rhomin                     =      0.0001000 
 volume of the QM region    =   1479.0916014 
 surface of the QM region   =    270.3071729 

%%%% DIELECTRIC %%%%%%%%%%%%%%%%%%%%%%%%%%%%%%%%%%%%%%%%%%%%%%%%%%%%%%%%%%%%%%%%%
 dielectric build on homogeneous background
 environment bulk permitt.  =    100.0000000 
 dielectric flags
 need gradient              =  F 
 need factor depend. sqrt   =  T 
 need gradient of logarithm =  T 
