
     Program PWSCF v.6.1 (svn rev. 13369) starts on  7Nov2017 at 16:47:38 

     This program is part of the open-source Quantum ESPRESSO suite
     for quantum simulation of materials; please cite
         "P. Giannozzi et al., J. Phys.:Condens. Matter 21 395502 (2009);
          URL http://www.quantum-espresso.org", 
     in publications or presentations arising from this work. More details at
     http://www.quantum-espresso.org/quote

     Serial version
     Reading input from charged.in

     Current dimensions of program PWSCF are:
     Max number of different atomic species (ntypx) = 10
     Max number of k-points (npk) =  40000
     Max angular momentum in pseudopotentials (lmaxx) =  3
               file C.pbe-rrkjus.UPF: wavefunction(s)  2S 2P renormalized
               file O.pbe-rrkjus.UPF: wavefunction(s)  2S renormalized

     gamma-point specific algorithms are used

     G-vector sticks info
     --------------------
     sticks:   dense  smooth     PW     G-vecs:    dense   smooth      PW
     Sum        2205    1099    269               330909   116965   14571



     bravais-lattice index     =            8
     lattice parameter (alat)  =      10.6881  a.u.
     unit-cell volume          =    4181.1215 (a.u.)^3
     number of atoms/cell      =           10
     number of atomic types    =            3
     number of electrons       =        89.00
     number of Kohn-Sham states=           80
     kinetic-energy cutoff     =      35.0000  Ry
     charge density cutoff     =     280.0000  Ry
     convergence threshold     =      5.0E-02
     mixing beta               =       0.7000
     number of iterations used =            8  plain     mixing
     Exchange-correlation      = PBE ( 1  4  3  4 0 0)


     Environ Module
     ==============

     Plese cite
         O. Andreussi, I. Dabo and N. Marzari, J. Chem. Phys. 136, 064102 (2012)         
     in publications or presentations arising from this work.

     compensation onset threshold      =               0.1000E+03 
     static permittivity               =                   100.00 
     epsilon calculation mode          =                     full 

     Electrostatic Setup
     -------------------
     electrostatic problem to solve    = generalized              
     numerical solver adopted          = cg                       
     type of auxiliary density adopted = none                     
     type of core tool for poisson     = fft                      
     type of core tool for s(r) deriv  = analytic                 



     celldm(1)=  10.688100  celldm(2)=   0.866025  celldm(3)=   3.954220
     celldm(4)=   0.000000  celldm(5)=   0.000000  celldm(6)=   0.000000

     crystal axes: (cart. coord. in units of alat)
               a(1) = (   1.000000   0.000000   0.000000 )  
               a(2) = (   0.000000   0.866025   0.000000 )  
               a(3) = (   0.000000   0.000000   3.954220 )  

     reciprocal axes: (cart. coord. in units 2 pi/alat)
               b(1) = (  1.000000  0.000000  0.000000 )  
               b(2) = (  0.000000  1.154701  0.000000 )  
               b(3) = (  0.000000  0.000000  0.252894 )  


     PseudoPot. # 1 for C  read from file:
     /Users/oliviero/PWSCF/espresso-6.1-Environ-1.0/Environ/tests/../..//pseudo/C.pbe-rrkjus.UPF
     MD5 check sum: 00fb224312de0c5b6853bd333518df6f
     Pseudo is Ultrasoft, Zval =  4.0
     Generated by new atomic code, or converted to UPF format
     Using radial grid of  627 points,  4 beta functions with: 
                l(1) =   0
                l(2) =   0
                l(3) =   1
                l(4) =   1
     Q(r) pseudized with 0 coefficients 


     PseudoPot. # 2 for O  read from file:
     /Users/oliviero/PWSCF/espresso-6.1-Environ-1.0/Environ/tests/../..//pseudo/O.pbe-rrkjus.UPF
     MD5 check sum: 390ba29e75625707450f3bd3f0eb6be9
     Pseudo is Ultrasoft, Zval =  6.0
     Generated by new atomic code, or converted to UPF format
     Using radial grid of 1269 points,  4 beta functions with: 
                l(1) =   0
                l(2) =   0
                l(3) =   1
                l(4) =   1
     Q(r) pseudized with 0 coefficients 


     PseudoPot. # 3 for Pt read from file:
     /Users/oliviero/PWSCF/espresso-6.1-Environ-1.0/Environ/tests/../..//pseudo/Pt.pbe-n-rrkjus_psl.0.1.UPF
     MD5 check sum: df5be8f5ed4f66d4aed38ca70ec8d507
     Pseudo is Ultrasoft + core correction, Zval = 10.0
     Generated using "atomic" code by A. Dal Corso  v.5.0.2 svn rev. 9415
     Using radial grid of 1277 points,  6 beta functions with: 
                l(1) =   0
                l(2) =   0
                l(3) =   1
                l(4) =   1
                l(5) =   2
                l(6) =   2
     Q(r) pseudized with 0 coefficients 


     atomic species   valence    mass     pseudopotential
        C              4.00     1.00000     C ( 1.00)
        O              6.00     1.00000     O ( 1.00)
        Pt            10.00     1.00000     Pt( 1.00)

     No symmetry found



   Cartesian axes

     site n.     atom                  positions (alat units)
         1           C   tau(   1) = (   0.4991611   0.4347567   1.2070461  )
         2           O   tau(   2) = (   0.4991542   0.4322212   1.4109013  )
         3           Pt  tau(   3) = (   0.7542339   0.0091745   0.8413229  )
         4           Pt  tau(   4) = (   0.2441023   0.0091745   0.8413226  )
         5           Pt  tau(   5) = (   0.0000034   0.4416918   0.8391348  )
         6           Pt  tau(   6) = (   0.4991682   0.4417635   0.8776299  )
         7           Pt  tau(   7) = (   0.0000038   0.7300598   0.4308181  )
         8           Pt  tau(   8) = (   0.4991683   0.7202168   0.4447460  )
         9           Pt  tau(   9) = (   0.2524172   0.2949237   0.4386572  )
        10           Pt  tau(  10) = (   0.7459196   0.2949237   0.4386575  )

     number of k points=     1  Marzari-Vanderbilt smearing, width (Ry)=  0.0300
                       cart. coord. in units 2pi/alat
        k(    1) = (   0.0000000   0.0000000   0.0000000), wk =   2.0000000

     Dense  grid:   165455 G-vectors     FFT dimensions: (  60,  50, 225)

     Smooth grid:    58483 G-vectors     FFT dimensions: (  45,  36, 160)

     Estimated max dynamical RAM per process >     216.67MB

     Initial potential from superposition of free atoms
     Check: negative starting charge=   -0.001782

     starting charge   89.99859, renormalised to   89.00000

     negative rho (up, down):  1.762E-03 0.000E+00
     Starting wfc are   80 randomized atomic wfcs

     total cpu time spent up to now is       11.9 secs

     Self-consistent Calculation

     iteration #  1     ecut=    35.00 Ry     beta=0.70
     Davidson diagonalization with overlap
     ethr =  1.00E-02,  avg # of iterations =  5.0

     negative rho (up, down):  1.526E-03 0.000E+00

     add environment contribution to local potential
     polarization accuracy = 5.7E-05, # of iterations =  24

     total cpu time spent up to now is       20.3 secs

     total energy              =    -622.68843633 Ry
     Harris-Foulkes estimate   =    -624.21108732 Ry
     estimated scf accuracy    <       1.86594048 Ry
     electrostatic embedding   =       0.03381190 Ry
     correction to one-el term =       0.00000000 Ry

     iteration #  2     ecut=    35.00 Ry     beta=0.70
     Davidson diagonalization with overlap
     ethr =  2.10E-03,  avg # of iterations =  8.0

     negative rho (up, down):  2.177E-02 0.000E+00

     add environment contribution to local potential
     polarization accuracy = 5.2E-05, # of iterations =  37

     total cpu time spent up to now is       30.8 secs

     total energy              =    -618.03415419 Ry
     Harris-Foulkes estimate   =    -636.08322485 Ry
     estimated scf accuracy    <      52.43046208 Ry
     electrostatic embedding   =       0.19161060 Ry
     correction to one-el term =       8.42904559 Ry

     iteration #  3     ecut=    35.00 Ry     beta=0.70
     Davidson diagonalization with overlap
     ethr =  2.10E-03,  avg # of iterations =  3.0

     negative rho (up, down):  7.166E-03 0.000E+00

     add environment contribution to local potential
     polarization accuracy = 9.2E-05, # of iterations =  26

     total cpu time spent up to now is       39.2 secs

     total energy              =    -623.28116535 Ry
     Harris-Foulkes estimate   =    -632.99035370 Ry
     estimated scf accuracy    <       2.93486865 Ry
     electrostatic embedding   =       0.21418432 Ry
     correction to one-el term =       8.89272433 Ry

     iteration #  4     ecut=    35.00 Ry     beta=0.70
     Davidson diagonalization with overlap
     ethr =  2.10E-03,  avg # of iterations =  2.0

     negative rho (up, down):  9.894E-03 0.000E+00

     add environment contribution to local potential
     polarization accuracy = 6.2E-05, # of iterations =  31

     total cpu time spent up to now is       47.7 secs

     total energy              =    -623.59646170 Ry
     Harris-Foulkes estimate   =    -634.36566969 Ry
     estimated scf accuracy    <       1.93004842 Ry
     electrostatic embedding   =       0.21890935 Ry
     correction to one-el term =      10.22574374 Ry

     iteration #  5     ecut=    35.00 Ry     beta=0.70
     Davidson diagonalization with overlap
     ethr =  2.10E-03,  avg # of iterations =  1.0

     negative rho (up, down):  9.863E-03 0.000E+00

     add environment contribution to local potential
     polarization accuracy = 6.4E-05, # of iterations =  35

     total cpu time spent up to now is       56.7 secs

     total energy              =    -623.68205023 Ry
     Harris-Foulkes estimate   =    -633.73403010 Ry
     estimated scf accuracy    <       0.49955990 Ry
     electrostatic embedding   =       0.21584546 Ry
     correction to one-el term =       9.78748084 Ry

     iteration #  6     ecut=    35.00 Ry     beta=0.70
     Davidson diagonalization with overlap
     ethr =  5.61E-04,  avg # of iterations =  1.0

     negative rho (up, down):  7.454E-03 0.000E+00

     add environment contribution to local potential
     polarization accuracy = 9.3E-05, # of iterations =  28

     total cpu time spent up to now is       64.8 secs

     total energy              =    -623.67684012 Ry
     Harris-Foulkes estimate   =    -633.01123380 Ry
     estimated scf accuracy    <       0.57841749 Ry
     electrostatic embedding   =       0.21181808 Ry
     correction to one-el term =       9.08226949 Ry

     iteration #  7     ecut=    35.00 Ry     beta=0.70
     Davidson diagonalization with overlap
     ethr =  5.61E-04,  avg # of iterations =  1.0

     negative rho (up, down):  3.963E-03 0.000E+00

     add environment contribution to local potential
     polarization accuracy = 4.7E-05, # of iterations =  28

     total cpu time spent up to now is       73.0 secs

     total energy              =    -623.68577893 Ry
     Harris-Foulkes estimate   =    -632.67561623 Ry
     estimated scf accuracy    <       0.06344125 Ry
     electrostatic embedding   =       0.20861990 Ry
     correction to one-el term =       8.76693666 Ry

     iteration #  8     ecut=    35.00 Ry     beta=0.70
     Davidson diagonalization with overlap
     ethr =  7.13E-05,  avg # of iterations = 11.0

     negative rho (up, down):  2.804E-03 0.000E+00

     add environment contribution to local potential
     polarization accuracy = 7.8E-05, # of iterations =  27

     total cpu time spent up to now is       81.6 secs

     total energy              =    -623.69008632 Ry
     Harris-Foulkes estimate   =    -632.21749926 Ry
     estimated scf accuracy    <       0.07116647 Ry
     electrostatic embedding   =       0.20435949 Ry
     correction to one-el term =       8.31547087 Ry

     iteration #  9     ecut=    35.00 Ry     beta=0.70
     Davidson diagonalization with overlap
     ethr =  7.13E-05,  avg # of iterations =  1.0

     negative rho (up, down):  3.302E-03 0.000E+00

     add environment contribution to local potential
     polarization accuracy = 6.6E-05, # of iterations =  27

     total cpu time spent up to now is       89.7 secs

     total energy              =    -623.69205926 Ry
     Harris-Foulkes estimate   =    -631.79812774 Ry
     estimated scf accuracy    <       0.06700755 Ry
     electrostatic embedding   =       0.20144832 Ry
     correction to one-el term =       7.89670812 Ry

     iteration # 10     ecut=    35.00 Ry     beta=0.70
     Davidson diagonalization with overlap
     ethr =  7.13E-05,  avg # of iterations =  1.0

     negative rho (up, down):  2.092E-03 0.000E+00

     total cpu time spent up to now is       94.1 secs

     End of self-consistent calculation

          k = 0.0000 0.0000 0.0000 (  7286 PWs)   bands (ev):

   -29.5400 -16.0414 -14.3802 -13.1868 -12.9190 -12.3823 -12.3731 -12.2057
   -12.0347 -11.1960 -11.0580 -10.9474 -10.7239 -10.6776 -10.6033 -10.4693
    -9.7893  -9.7496  -9.6944  -9.4946  -9.4445  -9.3966  -9.3532  -9.3202
    -9.3023  -9.1244  -9.1013  -9.0135  -8.9032  -8.6650  -8.5629  -7.8096
    -7.6808  -7.4189  -7.1696  -7.1388  -7.0732  -6.9052  -6.7609  -6.6285
    -6.4460  -6.4352  -6.2364  -6.1902  -6.1469  -5.9779  -5.8422  -4.7631
    -4.4388  -4.3716  -3.7835  -3.1124  -2.9689  -2.0039  -1.6817  -1.5972
    -0.2503  -0.0523   0.0549   0.3519   0.8606   1.1916   1.4104   1.4340
     2.2765   2.5112   2.7072   2.8452   2.9784   3.3225   4.1798   4.5828
     4.6770   4.7402   4.9731   5.3168   5.4062   5.4766   5.5808   5.6597

     the Fermi energy is    -6.0627 ev

!    total energy              =    -623.69510649 Ry
     Harris-Foulkes estimate   =    -631.82999842 Ry
     estimated scf accuracy    <       0.00209806 Ry

     The total energy is the sum of the following terms:

     one-electron contribution =   -3947.13593194 Ry
     hartree contribution      =    2004.84625049 Ry
     xc contribution           =    -262.74169768 Ry
     ewald contribution        =    1573.20467954 Ry
     smearing contrib. (-TS)   =      -0.00136574 Ry
     electrostatic embedding   =       0.20137189 Ry
     correction to one-el term =       7.93158694 Ry

     convergence has been achieved in  10 iterations

     negative rho (up, down):  2.092E-03 0.000E+00

     Forces acting on atoms (cartesian axes, Ry/au):

     atom    1 type  1   force =    -0.00008810   -0.00440340    0.06926445
     atom    2 type  2   force =     0.00004849    0.00134684   -0.02911417
     atom    3 type  3   force =    -0.00454471    0.01192225    0.02154704
     atom    4 type  3   force =     0.00547358    0.01188926    0.02332211
     atom    5 type  3   force =    -0.00266677    0.01154301   -0.00962997
     atom    6 type  3   force =     0.00164237    0.00994855    0.04185367
     atom    7 type  3   force =    -0.00228388   -0.01038121   -0.03616021
     atom    8 type  3   force =     0.00137985   -0.02080882   -0.01570323
     atom    9 type  3   force =     0.02305871   -0.00556664   -0.03320878
     atom   10 type  3   force =    -0.02201955   -0.00548984   -0.03217091

     Total force =     0.120053     Total SCF correction =     0.177516
     SCF correction compared to forces is large: reduce conv_thr to get better values

     Writing output data file pwscf.save

     init_run     :     11.16s CPU     11.52s WALL (       1 calls)
     electrons    :     80.57s CPU     82.35s WALL (       1 calls)
     forces       :      7.32s CPU      7.56s WALL (       1 calls)

     Called by init_run:
     wfcinit      :      0.59s CPU      0.51s WALL (       1 calls)
     potinit      :      2.69s CPU      2.76s WALL (       1 calls)

     Called by electrons:
     c_bands      :     17.31s CPU     13.54s WALL (      10 calls)
     sum_band     :     15.08s CPU     14.76s WALL (      10 calls)
     v_of_rho     :      5.65s CPU      6.06s WALL (      11 calls)
     newd         :      8.54s CPU     10.96s WALL (      11 calls)
     mix_rho      :      0.55s CPU      0.73s WALL (      10 calls)

     Called by c_bands:
     init_us_2    :      0.16s CPU      0.18s WALL (      21 calls)
     regterg      :     16.56s CPU     12.76s WALL (      10 calls)

     Called by sum_band:
     sum_band:bec :      0.00s CPU      0.00s WALL (      10 calls)
     addusdens    :     12.03s CPU     11.76s WALL (      10 calls)

     Called by *egterg:
     h_psi        :     11.19s CPU      9.97s WALL (      45 calls)
     s_psi        :      1.36s CPU      0.37s WALL (      45 calls)
     g_psi        :      0.08s CPU      0.08s WALL (      34 calls)
     rdiaghg      :      0.63s CPU      0.61s WALL (      44 calls)

     Called by h_psi:
     h_psi:pot    :     11.12s CPU      9.89s WALL (      45 calls)
     h_psi:calbec :      0.71s CPU      0.37s WALL (      45 calls)
     vloc_psi     :      9.01s CPU      9.14s WALL (      45 calls)
     add_vuspsi   :      1.39s CPU      0.38s WALL (      45 calls)

     General routines
     calbec       :      1.07s CPU      0.55s WALL (      59 calls)
     fft          :     15.67s CPU     15.84s WALL (     848 calls)
     ffts         :      0.14s CPU      0.14s WALL (      21 calls)
     fftw         :      9.12s CPU      9.25s WALL (    2412 calls)
     interpolate  :      0.63s CPU      0.72s WALL (      21 calls)
     davcio       :      0.00s CPU      0.00s WALL (       1 calls)


     Environ routines
     calc_eelect  :      0.02s CPU      0.02s WALL (      20 calls)
     calc_velect  :     29.84s CPU     32.44s WALL (      18 calls)
     dielectric   :      0.35s CPU      0.45s WALL (      12 calls)
     calc_felect  :      0.28s CPU      0.29s WALL (       1 calls)

     PWSCF        :  1m39.52s CPU     1m42.14s WALL


   This run was terminated on:  16:49:20   7Nov2017            

=------------------------------------------------------------------------------=
   JOB DONE.
=------------------------------------------------------------------------------=

%%%% IONS %%%%%%%%%%%%%%%%%%%%%%%%%%%%%%%%%%%%%%%%%%%%%%%%%%%%%%%%%%%%%%%%%%%%%%
 number of ions             =         10
 ionic center of charge     =      0.3882415     0.3750182     0.7201831
 total ionic charge         =    -90.0000000
 ionic dipole               =      0.0000000     0.0000000     0.0000000
 ionic quadrupole (pc)      =   -730.5101255  -614.6110457  -876.7220256
 ionic quadrupole (gauss)   =   -741.7601255  -625.8610457  -887.9720256
 ion   1 type =  1 coordinates =      5.3350841     4.6467234    12.9010299
 ion   2 type =  2 coordinates =      5.3350096     4.6196233    15.0798543
 ion   3 type =  3 coordinates =      8.0613271     0.0980580     8.9921429
 ion   4 type =  3 coordinates =      2.6089894     0.0980583     8.9921406
 ion   5 type =  3 coordinates =      0.0000366     4.7208463     8.9687569
 ion   6 type =  3 coordinates =      5.3351596     4.7216127     9.3801964
 ion   7 type =  3 coordinates =      0.0000411     7.8029520     4.6046265
 ion   8 type =  3 coordinates =      5.3351612     7.6977491     4.7534894
 ion   9 type =  3 coordinates =      2.6978606     3.1521739     4.6884123
 ion  10 type =  3 coordinates =      7.9724637     3.1521745     4.6884152

%%%% SYSTEM %%%%%%%%%%%%%%%%%%%%%%%%%%%%%%%%%%%%%%%%%%%%%%%%%%%%%%%%%%%%%%%%%%%%
 system is built from all present ionic types
 system defined dimension   =  0 
 system defined axis        =  3 
 system center              =      0.3882415     0.3750182     0.7201831 
 system width               =      1.5145225 

%%%% ELECTRONS %%%%%%%%%%%%%%%%%%%%%%%%%%%%%%%%%%%%%%%%%%%%%%%%%%%%%%%%%%%%%%%%%
 number of electrons        =         89
 total electronic charge    =     89.0000000
 number of spin components  =  1

%%%% BOUNDARY %%%%%%%%%%%%%%%%%%%%%%%%%%%%%%%%%%%%%%%%%%%%%%%%%%%%%%%%%%%%%%%%%%
 boundary mode              = full                 
 boundary is built as a function of a smooth density
 function type              =  2 
 using the modified SCCS function with parameters 
 rhomax                     =      0.0050000 
 rhomin                     =      0.0001000 
 volume of the QM region    =   1500.3416984 
 surface of the QM region   =    255.7118594 

%%%% DIELECTRIC %%%%%%%%%%%%%%%%%%%%%%%%%%%%%%%%%%%%%%%%%%%%%%%%%%%%%%%%%%%%%%%%%
 dielectric build on homogeneous background
 environment bulk permitt.  =    100.0000000 
 dielectric flags
 need gradient              =  F 
 need factor depend. sqrt   =  T 
 need gradient of logarithm =  T 

%%%% COMPUTE ELECTROSTATIC POTENTIAL %%%%%%%%%%%%%%%%%%%%%%%%%%%%%%%%%%%%%%%%%%%
 Iteration #          1
  pAp =    1295.4913425768561       rzold =    1273.5466545986237       alpha =   0.98306072201564676     
 delta_qm =   0.202782E+00 delta_en =   0.277565E+05 tol =   0.100000E-03
 Iteration #          2
  pAp =    21527.935589740624       rzold =    667.27256583433939       alpha =    3.0995659711669499E-002
 delta_qm =   0.740441E-01 delta_en =   0.370070E+04 tol =   0.100000E-03
 Iteration #          3
  pAp =   -1.8908551399580977       rzold =    1.0348087484457218       alpha =  -0.54727024116117839     
 delta_qm =   0.360448E-01 delta_en =   0.876978E+03 tol =   0.100000E-03
 Iteration #          4
  pAp =    40.652479823728363       rzold =    1.9034286595808823       alpha =    4.6821956934343621E-002
 delta_qm =   0.420632E-01 delta_en =   0.119429E+04 tol =   0.100000E-03
 Iteration #          5
  pAp =   0.94265459985072109       rzold =  -0.84664760061016064       alpha =  -0.89815251603740742     
 delta_qm =   0.100750E-01 delta_en =   0.685165E+02 tol =   0.100000E-03
 Iteration #          6
  pAp =    1.1712246030705040       rzold =   0.32799007748907760       alpha =   0.28004028999152919     
 delta_qm =   0.368362E-02 delta_en =   0.915910E+01 tol =   0.100000E-03
 Iteration #          7
  pAp =    4.1975533995165203E-002  rzold =    1.9696023504906061E-002  alpha =   0.46922627612491302     
 delta_qm =   0.227667E-02 delta_en =   0.349869E+01 tol =   0.100000E-03
 Iteration #          8
  pAp =    5.9369345874023044E-003  rzold =    3.4593886877950920E-003  alpha =   0.58268937224533945     
 delta_qm =   0.265148E-02 delta_en =   0.474549E+01 tol =   0.100000E-03
 Iteration #          9
  pAp =    1.9573482542915746E-003  rzold =    2.0545364342758597E-003  alpha =    1.0496529831986696     
 delta_qm =   0.323601E-02 delta_en =   0.706843E+01 tol =   0.100000E-03
 Iteration #         10
  pAp =    2.8722532342627719E-003  rzold =    4.8597711950996185E-003  alpha =    1.6919717026089407     
 delta_qm =   0.384704E-02 delta_en =   0.998983E+01 tol =   0.100000E-03
 Iteration #         11
  pAp =    1.9286703296820879E-002  rzold =    2.2724200444771189E-002  alpha =    1.1782314527810944     
 delta_qm =   0.448503E-02 delta_en =   0.135780E+02 tol =   0.100000E-03
 Iteration #         12
  pAp =   0.25886504346702610       rzold =    4.5474883102288484E-002  alpha =   0.17567023532121290     
 delta_qm =   0.470111E-02 delta_en =   0.149178E+02 tol =   0.100000E-03
 Iteration #         13
  pAp =    1.5525606870786854       rzold =   0.14231924883792763       alpha =    9.1667430473018757E-002
 delta_qm =   0.390466E-02 delta_en =   0.102913E+02 tol =   0.100000E-03
 Iteration #         14
  pAp =    8.2544477840160290E-003  rzold =    5.3791067214076609E-003  alpha =   0.65166160864495393     
 delta_qm =   0.245943E-02 delta_en =   0.408294E+01 tol =   0.100000E-03
 Iteration #         15
  pAp =    4.0516132332046014E-003  rzold =    2.2824839807937349E-003  alpha =   0.56335189205323444     
 delta_qm =   0.162113E-02 delta_en =   0.177395E+01 tol =   0.100000E-03
 Iteration #         16
  pAp =    1.1293434543267694E-003  rzold =    8.5509710527535547E-004  alpha =   0.75716302423260673     
 delta_qm =   0.103986E-02 delta_en =   0.729890E+00 tol =   0.100000E-03
 Iteration #         17
  pAp =    2.2775073026705447E-003  rzold =    9.0219940620028035E-004  alpha =   0.39613458325353568     
 delta_qm =   0.591366E-03 delta_en =   0.236057E+00 tol =   0.100000E-03
 Iteration #         18
  pAp =    8.2928100521486843E-004  rzold =    3.6901027578170576E-004  alpha =   0.44497615821562730     
 delta_qm =   0.230412E-03 delta_en =   0.358355E-01 tol =   0.100000E-03
 Iteration #         19
  pAp =    8.6173381596397293E-005  rzold =    4.2388465499640199E-005  alpha =   0.49189743647488893     
 delta_qm =   0.126023E-03 delta_en =   0.107203E-01 tol =   0.100000E-03
 Iteration #         20
  pAp =    1.1081497476421647E-005  rzold =    5.4739707719240236E-006  alpha =   0.49397392216811087     
 delta_qm =   0.743054E-04 delta_en =   0.372687E-02 tol =   0.100000E-03
 Iteration #         21
  pAp =    1.4239875359378252E-006  rzold =    9.9223171714883827E-007  alpha =   0.69679803517055616     
 delta_qm =   0.362847E-04 delta_en =   0.888689E-03 tol =   0.100000E-03
 Iteration #         22
  pAp =    4.0975182799103005E-006  rzold =    6.2970979998185577E-007  alpha =   0.15368077869701191     
 delta_qm =   0.312265E-04 delta_en =   0.658187E-03 tol =   0.100000E-03
 Iteration #         23
  pAp =    1.6321273046648885E-005  rzold =    1.8291132534089472E-006  alpha =   0.11206927597994595     
 delta_qm =   0.166240E-04 delta_en =   0.186540E-03 tol =   0.100000E-03
 Iteration #         24
  pAp =    2.2515368076423527E-007  rzold =    1.3577920187043756E-007  alpha =   0.60305121999145006     
 delta_qm =   0.919761E-05 delta_en =   0.571023E-04 tol =   0.100000E-03
 Charges are converged, EXIT

%%%% ELECTRONS %%%%%%%%%%%%%%%%%%%%%%%%%%%%%%%%%%%%%%%%%%%%%%%%%%%%%%%%%%%%%%%%%
 number of electrons        =         89
 total electronic charge    =     89.0000000
 number of spin components  =  1

%%%% BOUNDARY %%%%%%%%%%%%%%%%%%%%%%%%%%%%%%%%%%%%%%%%%%%%%%%%%%%%%%%%%%%%%%%%%%
 boundary mode              = full                 
 boundary is built as a function of a smooth density
 function type              =  2 
 using the modified SCCS function with parameters 
 rhomax                     =      0.0050000 
 rhomin                     =      0.0001000 
 volume of the QM region    =   1506.2966697 
 surface of the QM region   =    353.4856362 

%%%% DIELECTRIC %%%%%%%%%%%%%%%%%%%%%%%%%%%%%%%%%%%%%%%%%%%%%%%%%%%%%%%%%%%%%%%%%
 dielectric build on homogeneous background
 environment bulk permitt.  =    100.0000000 
 dielectric flags
 need gradient              =  F 
 need factor depend. sqrt   =  T 
 need gradient of logarithm =  T 

%%%% COMPUTE ELECTROSTATIC POTENTIAL %%%%%%%%%%%%%%%%%%%%%%%%%%%%%%%%%%%%%%%%%%%
 Warning: bad guess with residual norm =   0.144312E+06, reset to no guess
 Iteration #          1
  pAp =    1276.2913733993396       rzold =    1274.3554466568564       alpha =   0.99848316240097512     
 delta_qm =   0.182683E+00 delta_en =   0.225268E+05 tol =   0.100000E-03
 Iteration #          2
  pAp =    1154.2134424599990       rzold =    29.183644716848391       alpha =    2.5284443624784585E-002
 delta_qm =   0.241882E+00 delta_en =   0.394922E+05 tol =   0.100000E-03
 Iteration #          3
  pAp =    56.950896778359272       rzold =    2.4008729339375665       alpha =    4.2156894267727708E-002
 delta_qm =   0.268979E+00 delta_en =   0.488361E+05 tol =   0.100000E-03
 Iteration #          4
  pAp =    1.7545242163016044       rzold =   -1.4168061163349150       alpha =  -0.80751585140353788     
 delta_qm =   0.110362E+00 delta_en =   0.822128E+04 tol =   0.100000E-03
 Iteration #          5
  pAp =  -0.29901895671327938       rzold =   0.52212964375255499       alpha =   -1.7461422830566893     
 delta_qm =   0.665322E+00 delta_en =   0.298791E+06 tol =   0.100000E-03
 Iteration #          6
  pAp =    105.69523065246186       rzold =    9.2234011363786941       alpha =    8.7264118536306556E-002
 delta_qm =   0.262643E-01 delta_en =   0.465623E+03 tol =   0.100000E-03
 Iteration #          7
  pAp =   0.21204909617943632       rzold =    6.5181776605583233E-002  alpha =   0.30739002325398407     
 delta_qm =   0.597036E-02 delta_en =   0.240605E+02 tol =   0.100000E-03
 Iteration #          8
  pAp =    3.1100064691637144E-002  rzold =    9.9995183462856397E-003  alpha =   0.32152725228814477     
 delta_qm =   0.352760E-02 delta_en =   0.839969E+01 tol =   0.100000E-03
 Iteration #          9
  pAp =    2.3170530832047767E-003  rzold =    9.7217656046600092E-004  alpha =   0.41957457406256660     
 delta_qm =   0.269449E-02 delta_en =   0.490067E+01 tol =   0.100000E-03
 Iteration #         10
  pAp =    7.6863765575727971E-004  rzold =    3.5461072059672931E-004  alpha =   0.46134965928433286     
 delta_qm =   0.230074E-02 delta_en =   0.357304E+01 tol =   0.100000E-03
 Iteration #         11
  pAp =    2.6077221414051217E-004  rzold =    2.2169673057802195E-004  alpha =   0.85015472721554941     
 delta_qm =   0.223751E-02 delta_en =   0.337937E+01 tol =   0.100000E-03
 Iteration #         12
  pAp =    9.4652161974278766E-004  rzold =    3.6917377372158125E-004  alpha =   0.39003205634320570     
 delta_qm =   0.110891E-02 delta_en =   0.830042E+00 tol =   0.100000E-03
 Iteration #         13
  pAp =    6.2733687880147659E-002  rzold =    3.4607237316774974E-003  alpha =    5.5165316253831427E-002
 delta_qm =   0.210722E-02 delta_en =   0.299725E+01 tol =   0.100000E-03
 Iteration #         14
  pAp =    1.0020614560191706E-003  rzold =    5.7148160778161972E-004  alpha =   0.57030594715409011     
 delta_qm =   0.241156E-02 delta_en =   0.392555E+01 tol =   0.100000E-03
 Iteration #         15
  pAp =    4.0672985578921292E-004  rzold =    4.2169340599864091E-004  alpha =    1.0367898987410031     
 delta_qm =   0.406772E-02 delta_en =   0.111688E+02 tol =   0.100000E-03
 Iteration #         16
  pAp =   -4.3967910663677667E-004  rzold =    1.7379141891797477E-003  alpha =   -3.9526876827819253     
 delta_qm =   0.309359E-01 delta_en =   0.645993E+03 tol =   0.100000E-03
 Iteration #         17
  pAp =   0.69477582152285255       rzold =    6.1397052235616492E-002  alpha =    8.8369586755397800E-002
 delta_qm =   0.270814E-02 delta_en =   0.495047E+01 tol =   0.100000E-03
 Iteration #         18
  pAp =    2.6556939322031014E-003  rzold =    7.1633685508896657E-004  alpha =   0.26973622464645630     
 delta_qm =   0.111799E-02 delta_en =   0.843688E+00 tol =   0.100000E-03
 Iteration #         19
  pAp =    1.3568803633558265E-004  rzold =    7.2419313361441747E-005  alpha =   0.53371922328019283     
 delta_qm =   0.670887E-03 delta_en =   0.303811E+00 tol =   0.100000E-03
 Iteration #         20
  pAp =    8.1680761564626131E-005  rzold =    3.5684262311564694E-005  alpha =   0.43687475028414335     
 delta_qm =   0.456914E-03 delta_en =   0.140920E+00 tol =   0.100000E-03
 Iteration #         21
  pAp =    3.1099782707539354E-005  rzold =    1.7418767653791613E-005  alpha =   0.56009290539412271     
 delta_qm =   0.358403E-03 delta_en =   0.867058E-01 tol =   0.100000E-03
 Iteration #         22
  pAp =    1.6930131355834259E-005  rzold =    8.8401335412747299E-006  alpha =   0.52215386611447345     
 delta_qm =   0.246863E-03 delta_en =   0.411355E-01 tol =   0.100000E-03
 Iteration #         23
  pAp =    1.6924232518986029E-004  rzold =    6.9333895981266815E-006  alpha =    4.0967231987321322E-002
 delta_qm =   0.236474E-03 delta_en =   0.377458E-01 tol =   0.100000E-03
 Iteration #         24
  pAp =    1.8548966444655887E-005  rzold =    5.1413504732587989E-006  alpha =   0.27717719413633773     
 delta_qm =   0.162243E-03 delta_en =   0.177678E-01 tol =   0.100000E-03
 Iteration #         25
  pAp =    9.4861975180560935E-006  rzold =    2.0854971432615372E-006  alpha =   0.21984542692601411     
 delta_qm =   0.121347E-03 delta_en =   0.993947E-02 tol =   0.100000E-03
 Iteration #         26
  pAp =    2.0783476369588244E-006  rzold =    1.2640889766051918E-006  alpha =   0.60821825671805818     
 delta_qm =   0.103723E-03 delta_en =   0.726192E-02 tol =   0.100000E-03
 Iteration #         27
  pAp =    1.1545638839739995E-006  rzold =    6.9521400380246547E-007  alpha =   0.60214424983530968     
 delta_qm =   0.881200E-04 delta_en =   0.524147E-02 tol =   0.100000E-03
 Iteration #         28
  pAp =    1.0550154426673304E-006  rzold =    5.1943563150298524E-007  alpha =   0.49234884201289814     
 delta_qm =   0.754740E-04 delta_en =   0.384502E-02 tol =   0.100000E-03
 Iteration #         29
  pAp =    3.5577752244652182E-007  rzold =    1.6940090380932462E-007  alpha =   0.47614279464433523     
 delta_qm =   0.120672E-03 delta_en =   0.982921E-02 tol =   0.100000E-03
 Iteration #         30
  pAp =    8.7052482207395708E-009  rzold =    1.6046983663709749E-007  alpha =    18.433688801060342     
 delta_qm =   0.703572E-02 delta_en =   0.334134E+02 tol =   0.100000E-03
 Iteration #         31
  pAp =   -5.5168219170382324E-002  rzold =    4.0216836432771172E-004  alpha =   -7.2898558332225505E-003
 delta_qm =   0.691222E-04 delta_en =   0.322507E-02 tol =   0.100000E-03
 Iteration #         32
  pAp =    1.6457702755435019E-007  rzold =    1.4436759646604583E-008  alpha =    8.7720381520664928E-002
 delta_qm =   0.844281E-04 delta_en =   0.481147E-02 tol =   0.100000E-03
 Iteration #         33
  pAp =    4.6048363171249983E-009  rzold =   -1.4160009347279770E-008  alpha =   -3.0750298972886156     
 delta_qm =   0.394363E-04 delta_en =   0.104977E-02 tol =   0.100000E-03
 Iteration #         34
  pAp =    1.5721600968722223E-006  rzold =    9.8933532935870783E-008  alpha =    6.2928408584276410E-002
 delta_qm =   0.344209E-04 delta_en =   0.799740E-03 tol =   0.100000E-03
 Iteration #         35
  pAp =    6.0570395635104606E-007  rzold =    1.6128933398812706E-007  alpha =   0.26628410182390994     
 delta_qm =   0.211272E-04 delta_en =   0.301292E-03 tol =   0.100000E-03
 Iteration #         36
  pAp =    3.7233663254249535E-008  rzold =    2.8171027907199282E-008  alpha =   0.75660102834453391     
 delta_qm =   0.143082E-04 delta_en =   0.138190E-03 tol =   0.100000E-03
 Iteration #         37
  pAp =    1.1913876311368370E-008  rzold =    8.8096147382355524E-009  alpha =   0.73944151407962055     
 delta_qm =   0.880275E-05 delta_en =   0.523046E-04 tol =   0.100000E-03
 Charges are converged, EXIT

%%%% ELECTRONS %%%%%%%%%%%%%%%%%%%%%%%%%%%%%%%%%%%%%%%%%%%%%%%%%%%%%%%%%%%%%%%%%
 number of electrons        =         89
 total electronic charge    =     89.0000000
 number of spin components  =  1

%%%% BOUNDARY %%%%%%%%%%%%%%%%%%%%%%%%%%%%%%%%%%%%%%%%%%%%%%%%%%%%%%%%%%%%%%%%%%
 boundary mode              = full                 
 boundary is built as a function of a smooth density
 function type              =  2 
 using the modified SCCS function with parameters 
 rhomax                     =      0.0050000 
 rhomin                     =      0.0001000 
 volume of the QM region    =   1503.9330931 
 surface of the QM region   =    269.5609280 

%%%% DIELECTRIC %%%%%%%%%%%%%%%%%%%%%%%%%%%%%%%%%%%%%%%%%%%%%%%%%%%%%%%%%%%%%%%%%
 dielectric build on homogeneous background
 environment bulk permitt.  =    100.0000000 
 dielectric flags
 need gradient              =  F 
 need factor depend. sqrt   =  T 
 need gradient of logarithm =  T 

%%%% COMPUTE ELECTROSTATIC POTENTIAL %%%%%%%%%%%%%%%%%%%%%%%%%%%%%%%%%%%%%%%%%%%
 Warning: bad guess with residual norm =   0.158692E+04, reset to no guess
 Iteration #          1
  pAp =    1276.0819040919246       rzold =    1273.2012843785967       alpha =   0.99774260593768249     
 delta_qm =   0.104964E+00 delta_en =   0.743683E+04 tol =   0.100000E-03
 Iteration #          2
  pAp =    2362.9211402001033       rzold =    71.130492380974587       alpha =    3.0102778789710655E-002
 delta_qm =   0.103966E+00 delta_en =   0.729606E+04 tol =   0.100000E-03
 Iteration #          3
  pAp =    24.037032333244596       rzold =    3.2653456971852846       alpha =   0.13584645774549814     
 delta_qm =   0.120959E+00 delta_en =   0.987595E+04 tol =   0.100000E-03
 Iteration #          4
  pAp =   -4.1309896628181573       rzold =   0.86565651260149856       alpha =  -0.20955184671436541     
 delta_qm =   0.736181E-01 delta_en =   0.365824E+04 tol =   0.100000E-03
 Iteration #          5
  pAp =   0.75140419258711955       rzold =  -0.51118310926794575       alpha =  -0.68030377566555567     
 delta_qm =   0.175754E-01 delta_en =   0.208503E+03 tol =   0.100000E-03
 Iteration #          6
  pAp =   0.66426494821949089       rzold =   0.21317393893178097       alpha =   0.32091703694915208     
 delta_qm =   0.593678E-02 delta_en =   0.237906E+02 tol =   0.100000E-03
 Iteration #          7
  pAp =    3.9879869505158413E-002  rzold =    1.7496767369256254E-002  alpha =   0.43873682603181707     
 delta_qm =   0.137185E-02 delta_en =   0.127032E+01 tol =   0.100000E-03
 Iteration #          8
  pAp =    3.5616487619655082E-003  rzold =    1.6384699683532598E-003  alpha =   0.46003131635278499     
 delta_qm =   0.100404E-02 delta_en =   0.680468E+00 tol =   0.100000E-03
 Iteration #          9
  pAp =    8.0922413597514834E-004  rzold =    2.8747905239236865E-004  alpha =   0.35525269157468292     
 delta_qm =   0.941737E-03 delta_en =   0.598636E+00 tol =   0.100000E-03
 Iteration #         10
  pAp =    1.7697879504701211E-004  rzold =    1.0546189354511194E-004  alpha =   0.59590129719833018     
 delta_qm =   0.734635E-03 delta_en =   0.364290E+00 tol =   0.100000E-03
 Iteration #         11
  pAp =    1.1861271939756927E-004  rzold =    1.1014850627794356E-004  alpha =   0.92863992021584851     
 delta_qm =   0.527993E-03 delta_en =   0.188174E+00 tol =   0.100000E-03
 Iteration #         12
  pAp =    4.1453451876235771E-004  rzold =    1.3282369628330663E-004  alpha =   0.32041649192416505     
 delta_qm =   0.455602E-03 delta_en =   0.140112E+00 tol =   0.100000E-03
 Iteration #         13
  pAp =    1.0922343791082948E-002  rzold =    5.9756993053025512E-004  alpha =    5.4710778378731673E-002
 delta_qm =   0.655047E-03 delta_en =   0.289634E+00 tol =   0.100000E-03
 Iteration #         14
  pAp =    1.3819784512148259E-004  rzold =    8.2176767076723938E-005  alpha =   0.59463132007945985     
 delta_qm =   0.719351E-03 delta_en =   0.349290E+00 tol =   0.100000E-03
 Iteration #         15
  pAp =    1.1858398566655437E-004  rzold =    8.2138511288523420E-005  alpha =   0.69266107752094142     
 delta_qm =   0.778077E-03 delta_en =   0.408648E+00 tol =   0.100000E-03
 Iteration #         16
  pAp =    8.9696933016281683E-005  rzold =    1.2046214198572880E-004  alpha =    1.3429906456652498     
 delta_qm =   0.983106E-03 delta_en =   0.652386E+00 tol =   0.100000E-03
 Iteration #         17
  pAp =    2.4804133104571412E-004  rzold =    2.8509062918864053E-004  alpha =    1.1493674380262788     
 delta_qm =   0.843634E-03 delta_en =   0.480410E+00 tol =   0.100000E-03
 Iteration #         18
  pAp =    5.8041795697371594E-004  rzold =    3.5179789342426799E-004  alpha =   0.60611131891668724     
 delta_qm =   0.448184E-03 delta_en =   0.135586E+00 tol =   0.100000E-03
 Iteration #         19
  pAp =    1.2795665642966858E-004  rzold =    6.3727083208001668E-005  alpha =   0.49803648349493473     
 delta_qm =   0.274532E-03 delta_en =   0.508734E-01 tol =   0.100000E-03
 Iteration #         20
  pAp =    2.0151144678889465E-005  rzold =    1.0210124457383925E-005  alpha =   0.50667714514898754     
 delta_qm =   0.149062E-03 delta_en =   0.149981E-01 tol =   0.100000E-03
 Iteration #         21
  pAp =    3.3506101421974441E-006  rzold =    2.5525141354394990E-006  alpha =   0.76180576883393347     
 delta_qm =   0.707753E-04 delta_en =   0.338117E-02 tol =   0.100000E-03
 Iteration #         22
  pAp =    1.9461185947340305E-006  rzold =    9.5404769903166507E-007  alpha =   0.49023101758197402     
 delta_qm =   0.394530E-04 delta_en =   0.105066E-02 tol =   0.100000E-03
 Iteration #         23
  pAp =    5.9506254325819379E-005  rzold =    2.3023103270183622E-006  alpha =    3.8690224298312197E-002
 delta_qm =   0.390729E-04 delta_en =   0.103052E-02 tol =   0.100000E-03
 Iteration #         24
  pAp =    9.3241402370117303E-007  rzold =    4.0557671087124532E-007  alpha =   0.43497491517912601     
 delta_qm =   0.214441E-04 delta_en =   0.310397E-03 tol =   0.100000E-03
 Iteration #         25
  pAp =    1.7653966495846727E-007  rzold =    7.7987688040915268E-008  alpha =   0.44175731306198329     
 delta_qm =   0.142466E-04 delta_en =   0.137001E-03 tol =   0.100000E-03
 Iteration #         26
  pAp =    2.1142375904184740E-007  rzold =    5.0359043886512860E-008  alpha =   0.23819008854414145     
 delta_qm =   0.116980E-04 delta_en =   0.923685E-04 tol =   0.100000E-03
 Charges are converged, EXIT

%%%% ELECTRONS %%%%%%%%%%%%%%%%%%%%%%%%%%%%%%%%%%%%%%%%%%%%%%%%%%%%%%%%%%%%%%%%%
 number of electrons        =         89
 total electronic charge    =     89.0000000
 number of spin components  =  1

%%%% BOUNDARY %%%%%%%%%%%%%%%%%%%%%%%%%%%%%%%%%%%%%%%%%%%%%%%%%%%%%%%%%%%%%%%%%%
 boundary mode              = full                 
 boundary is built as a function of a smooth density
 function type              =  2 
 using the modified SCCS function with parameters 
 rhomax                     =      0.0050000 
 rhomin                     =      0.0001000 
 volume of the QM region    =   1496.8438390 
 surface of the QM region   =    283.2474119 

%%%% DIELECTRIC %%%%%%%%%%%%%%%%%%%%%%%%%%%%%%%%%%%%%%%%%%%%%%%%%%%%%%%%%%%%%%%%%
 dielectric build on homogeneous background
 environment bulk permitt.  =    100.0000000 
 dielectric flags
 need gradient              =  F 
 need factor depend. sqrt   =  T 
 need gradient of logarithm =  T 

%%%% COMPUTE ELECTROSTATIC POTENTIAL %%%%%%%%%%%%%%%%%%%%%%%%%%%%%%%%%%%%%%%%%%%
 Warning: bad guess with residual norm =   0.551587E+03, reset to no guess
 Iteration #          1
  pAp =    1273.6065297317132       rzold =    1271.1794372557126       alpha =   0.99809431530120074     
 delta_qm =   0.115971E+00 delta_en =   0.907821E+04 tol =   0.100000E-03
 Iteration #          2
  pAp =    1829.7907439150040       rzold =    54.272963737721227       alpha =    2.9660748868801948E-002
 delta_qm =   0.126650E+00 delta_en =   0.108272E+05 tol =   0.100000E-03
 Iteration #          3
  pAp =    31.803291371691419       rzold =    3.6285326141754610       alpha =   0.11409299030619427     
 delta_qm =   0.144257E+00 delta_en =   0.140469E+05 tol =   0.100000E-03
 Iteration #          4
  pAp =   -2.9186813495153148       rzold =   0.35061196419335766       alpha =  -0.12012683887248650     
 delta_qm =   0.109649E+00 delta_en =   0.811544E+04 tol =   0.100000E-03
 Iteration #          5
  pAp =   0.18343281206017195       rzold =  -0.23759069078755862       alpha =   -1.2952464072219594     
 delta_qm =   0.262892E-01 delta_en =   0.466507E+03 tol =   0.100000E-03
 Iteration #          6
  pAp =   0.61996888569356279       rzold =   0.21986955552702281       alpha =   0.35464611305622773     
 delta_qm =   0.793182E-02 delta_en =   0.424668E+02 tol =   0.100000E-03
 Iteration #          7
  pAp =    5.5529344251425729E-002  rzold =    2.2357878017577097E-002  alpha =   0.40263176738311751     
 delta_qm =   0.186414E-02 delta_en =   0.234565E+01 tol =   0.100000E-03
 Iteration #          8
  pAp =    5.4635965654565499E-003  rzold =    2.4067716448931760E-003  alpha =   0.44051049817805515     
 delta_qm =   0.133410E-02 delta_en =   0.120138E+01 tol =   0.100000E-03
 Iteration #          9
  pAp =    8.8167161703849733E-004  rzold =    3.2648912392814255E-004  alpha =   0.37030694605414149     
 delta_qm =   0.125755E-02 delta_en =   0.106746E+01 tol =   0.100000E-03
 Iteration #         10
  pAp =    2.7560057607727343E-004  rzold =    1.4752966135923794E-004  alpha =   0.53530244188558329     
 delta_qm =   0.943038E-03 delta_en =   0.600292E+00 tol =   0.100000E-03
 Iteration #         11
  pAp =    1.1832838923823616E-004  rzold =    1.1507134911848673E-004  alpha =   0.97247456725543802     
 delta_qm =   0.492396E-03 delta_en =   0.163656E+00 tol =   0.100000E-03
 Iteration #         12
  pAp =    1.7440582334154204E-003  rzold =    1.2863597030422807E-004  alpha =    7.3756694495411404E-002
 delta_qm =   0.406833E-03 delta_en =   0.111721E+00 tol =   0.100000E-03
 Iteration #         13
  pAp =    8.1417481850375433E-004  rzold =    1.8955740906269935E-004  alpha =   0.23282150805284979     
 delta_qm =   0.430576E-03 delta_en =   0.125142E+00 tol =   0.100000E-03
 Iteration #         14
  pAp =    1.1141802784830920E-004  rzold =    4.7964688338209453E-005  alpha =   0.43049306530098785     
 delta_qm =   0.467283E-03 delta_en =   0.147388E+00 tol =   0.100000E-03
 Iteration #         15
  pAp =    4.9052404003355717E-005  rzold =    2.8795876161523529E-005  alpha =   0.58704311738836645     
 delta_qm =   0.550086E-03 delta_en =   0.204252E+00 tol =   0.100000E-03
 Iteration #         16
  pAp =    2.1969225665405110E-005  rzold =    3.2744439159130858E-005  alpha =    1.4904685152692227     
 delta_qm =   0.770856E-03 delta_en =   0.401097E+00 tol =   0.100000E-03
 Iteration #         17
  pAp =    4.7367380704569163E-005  rzold =    1.0029008115802952E-004  alpha =    2.1172815483199248     
 delta_qm =   0.999099E-03 delta_en =   0.673785E+00 tol =   0.100000E-03
 Iteration #         18
  pAp =    4.4943586777713643E-004  rzold =    4.4003861200578748E-004  alpha =   0.97909099730329308     
 delta_qm =   0.135156E-02 delta_en =   0.123303E+01 tol =   0.100000E-03
 Iteration #         19
  pAp =    5.4110224966195648E-004  rzold =    3.2094404573925113E-004  alpha =   0.59313012640356777     
 delta_qm =   0.944073E-03 delta_en =   0.601609E+00 tol =   0.100000E-03
 Iteration #         20
  pAp =    2.2675461220806434E-004  rzold =    1.1507488552443421E-004  alpha =   0.50748641628001101     
 delta_qm =   0.582347E-03 delta_en =   0.228911E+00 tol =   0.100000E-03
 Iteration #         21
  pAp =    5.9365729116566573E-005  rzold =    3.7356447465146065E-005  alpha =   0.62925947379161207     
 delta_qm =   0.340977E-03 delta_en =   0.784791E-01 tol =   0.100000E-03
 Iteration #         22
  pAp =    3.5828993886829569E-004  rzold =    2.5268327148528068E-005  alpha =    7.0524802422142499E-002
 delta_qm =   0.286510E-03 delta_en =   0.554094E-01 tol =   0.100000E-03
 Iteration #         23
  pAp =    1.6149519136313156E-004  rzold =    3.4223665155653471E-005  alpha =   0.21191754916528457     
 delta_qm =   0.167044E-03 delta_en =   0.188349E-01 tol =   0.100000E-03
 Iteration #         24
  pAp =    1.0930752883814915E-005  rzold =    5.2885294126737442E-006  alpha =   0.48382114835881346     
 delta_qm =   0.675561E-04 delta_en =   0.308058E-02 tol =   0.100000E-03
 Iteration #         25
  pAp =    5.1689305197569214E-006  rzold =    1.3686946279908140E-006  alpha =   0.26479261478933158     
 delta_qm =   0.521236E-04 delta_en =   0.183388E-02 tol =   0.100000E-03
 Iteration #         26
  pAp =    2.6713100113281475E-006  rzold =    6.5645946986355922E-007  alpha =   0.24574439772236484     
 delta_qm =   0.372559E-04 delta_en =   0.936902E-03 tol =   0.100000E-03
 Iteration #         27
  pAp =    2.0683226265864354E-007  rzold =    1.3820077631364488E-007  alpha =   0.66817804213519516     
 delta_qm =   0.224911E-04 delta_en =   0.341449E-03 tol =   0.100000E-03
 Iteration #         28
  pAp =    7.5987163076394073E-008  rzold =    3.9022186091213865E-008  alpha =   0.51353655685214505     
 delta_qm =   0.133758E-04 delta_en =   0.120766E-03 tol =   0.100000E-03
 Iteration #         29
  pAp =    3.6848636989791454E-008  rzold =   -3.9803745079584554E-008  alpha =   -1.0801958588213665     
 delta_qm =   0.505808E-04 delta_en =   0.172693E-02 tol =   0.100000E-03
 Iteration #         30
  pAp =   -1.1818830121658273E-006  rzold =    2.5373440594102880E-007  alpha =  -0.21468656654608714     
 delta_qm =   0.218210E-04 delta_en =   0.321405E-03 tol =   0.100000E-03
 Iteration #         31
  pAp =    6.9744212368466962E-008  rzold =    4.4691902570521790E-008  alpha =   0.64079729418133158     
 delta_qm =   0.961572E-05 delta_en =   0.624119E-04 tol =   0.100000E-03
 Charges are converged, EXIT

%%%% ELECTRONS %%%%%%%%%%%%%%%%%%%%%%%%%%%%%%%%%%%%%%%%%%%%%%%%%%%%%%%%%%%%%%%%%
 number of electrons        =         89
 total electronic charge    =     89.0000000
 number of spin components  =  1

%%%% BOUNDARY %%%%%%%%%%%%%%%%%%%%%%%%%%%%%%%%%%%%%%%%%%%%%%%%%%%%%%%%%%%%%%%%%%
 boundary mode              = full                 
 boundary is built as a function of a smooth density
 function type              =  2 
 using the modified SCCS function with parameters 
 rhomax                     =      0.0050000 
 rhomin                     =      0.0001000 
 volume of the QM region    =   1490.5665375 
 surface of the QM region   =    285.1122265 

%%%% DIELECTRIC %%%%%%%%%%%%%%%%%%%%%%%%%%%%%%%%%%%%%%%%%%%%%%%%%%%%%%%%%%%%%%%%%
 dielectric build on homogeneous background
 environment bulk permitt.  =    100.0000000 
 dielectric flags
 need gradient              =  F 
 need factor depend. sqrt   =  T 
 need gradient of logarithm =  T 

%%%% COMPUTE ELECTROSTATIC POTENTIAL %%%%%%%%%%%%%%%%%%%%%%%%%%%%%%%%%%%%%%%%%%%
 Warning: bad guess with residual norm =   0.107587E+03, reset to no guess
 Iteration #          1
  pAp =    1272.3464449133573       rzold =    1270.0466261833460       alpha =   0.99819245871342221     
 delta_qm =   0.112383E+00 delta_en =   0.852521E+04 tol =   0.100000E-03
 Iteration #          2
  pAp =    1669.5888528577179       rzold =    50.091540531473044       alpha =    3.0002320898186923E-002
 delta_qm =   0.118788E+00 delta_en =   0.952465E+04 tol =   0.100000E-03
 Iteration #          3
  pAp =    36.113061593492780       rzold =    4.0065800550412662       alpha =   0.11094545514144978     
 delta_qm =   0.133684E+00 delta_en =   0.120631E+05 tol =   0.100000E-03
 Iteration #          4
  pAp =   -2.9605762937360725       rzold =   0.45011921507194841       alpha =  -0.15203770158678281     
 delta_qm =   0.945298E-01 delta_en =   0.603172E+04 tol =   0.100000E-03
 Iteration #          5
  pAp =   0.28799999408841997       rzold =  -0.29013690555250338       alpha =   -1.0074198316248137     
 delta_qm =   0.236432E-01 delta_en =   0.377324E+03 tol =   0.100000E-03
 Iteration #          6
  pAp =   0.54999218017792761       rzold =   0.19771742265273803       alpha =   0.35949133420183282     
 delta_qm =   0.725511E-02 delta_en =   0.355298E+02 tol =   0.100000E-03
 Iteration #          7
  pAp =    4.8829217244229561E-002  rzold =    1.9338046236036906E-002  alpha =   0.39603432795806692     
 delta_qm =   0.198676E-02 delta_en =   0.266438E+01 tol =   0.100000E-03
 Iteration #          8
  pAp =    5.9121187251830187E-003  rzold =    2.5212782781455132E-003  alpha =   0.42645934483791392     
 delta_qm =   0.140736E-02 delta_en =   0.133695E+01 tol =   0.100000E-03
 Iteration #          9
  pAp =    5.6212519730660033E-004  rzold =    2.7586900621793257E-004  alpha =   0.49076079054941413     
 delta_qm =   0.128483E-02 delta_en =   0.111429E+01 tol =   0.100000E-03
 Iteration #         10
  pAp =    2.2505708549740305E-004  rzold =    1.3435820727781698E-004  alpha =   0.59699612203219155     
 delta_qm =   0.894956E-03 delta_en =   0.540638E+00 tol =   0.100000E-03
 Iteration #         11
  pAp =    2.4514554695712391E-004  rzold =    1.5990932769923487E-004  alpha =   0.65230361996827579     
 delta_qm =   0.428595E-03 delta_en =   0.123993E+00 tol =   0.100000E-03
 Iteration #         12
  pAp =    1.8877856732541209E-004  rzold =    9.5212424621439026E-005  alpha =   0.50436035176235905     
 delta_qm =   0.417537E-03 delta_en =   0.117678E+00 tol =   0.100000E-03
 Iteration #         13
  pAp =    1.5876200603274610E-003  rzold =    7.7401122478966408E-005  alpha =    4.8752925471980825E-002
 delta_qm =   0.343061E-03 delta_en =   0.794411E-01 tol =   0.100000E-03
 Iteration #         14
  pAp =    1.9242654059345584E-004  rzold =    5.2184883884634680E-005  alpha =   0.27119379542807942     
 delta_qm =   0.316975E-03 delta_en =   0.678193E-01 tol =   0.100000E-03
 Iteration #         15
  pAp =    3.1138827185261062E-005  rzold =    1.4621627990629213E-005  alpha =   0.46956257869435963     
 delta_qm =   0.324062E-03 delta_en =   0.708859E-01 tol =   0.100000E-03
 Iteration #         16
  pAp =    1.4683986567956899E-005  rzold =    1.2977524837187034E-005  alpha =   0.88378757206890457     
 delta_qm =   0.407400E-03 delta_en =   0.112033E+00 tol =   0.100000E-03
 Iteration #         17
  pAp =    1.2196650807552978E-005  rzold =    2.2931585046792331E-005  alpha =    1.8801542660048582     
 delta_qm =   0.629855E-03 delta_en =   0.267784E+00 tol =   0.100000E-03
 Iteration #         18
  pAp =    6.5862239552208623E-005  rzold =    1.1827383957307484E-004  alpha =    1.7957761591043353     
 delta_qm =   0.137373E-02 delta_en =   0.127382E+01 tol =   0.100000E-03
 Iteration #         19
  pAp =    3.1121736535493275E-004  rzold =    2.9825603478985047E-004  alpha =   0.95835280415570534     
 delta_qm =   0.172454E-02 delta_en =   0.200748E+01 tol =   0.100000E-03
 Iteration #         20
  pAp =    3.5535513506870564E-004  rzold =    3.0632654801131140E-004  alpha =   0.86202932723087045     
 delta_qm =   0.141100E-02 delta_en =   0.134387E+01 tol =   0.100000E-03
 Iteration #         21
  pAp =    2.2174032472238470E-004  rzold =    2.3835784523783398E-004  alpha =    1.0749413555529612     
 delta_qm =   0.100548E-02 delta_en =   0.682422E+00 tol =   0.100000E-03
 Iteration #         22
  pAp =    2.6534919498680839E-004  rzold =    1.7179762692055449E-004  alpha =   0.64743978940314950     
 delta_qm =   0.652300E-03 delta_en =   0.287209E+00 tol =   0.100000E-03
 Iteration #         23
  pAp =    3.1182469287963451E-004  rzold =    7.8287290708522865E-005  alpha =   0.25106187064775543     
 delta_qm =   0.514775E-03 delta_en =   0.178871E+00 tol =   0.100000E-03
 Iteration #         24
  pAp =    5.2347261497930689E-003  rzold =    2.8521996645547210E-004  alpha =    5.4486129416100780E-002
 delta_qm =   0.463222E-03 delta_en =   0.144838E+00 tol =   0.100000E-03
 Iteration #         25
  pAp =    2.7953439762082229E-004  rzold =    5.3687362141432472E-005  alpha =   0.19205994896648579     
 delta_qm =   0.360818E-03 delta_en =   0.878778E-01 tol =   0.100000E-03
 Iteration #         26
  pAp =    2.5541154653202027E-005  rzold =    1.5151826809322370E-005  alpha =   0.59323186500586911     
 delta_qm =   0.249195E-03 delta_en =   0.419163E-01 tol =   0.100000E-03
 Iteration #         27
  pAp =    1.6869201498748765E-005  rzold =    9.2821492082001219E-006  alpha =   0.55024235787856379     
 delta_qm =   0.148695E-03 delta_en =   0.149244E-01 tol =   0.100000E-03
 Iteration #         28
  pAp =    5.8352603301129423E-006  rzold =    3.7792163518973978E-006  alpha =   0.64765171356532270     
 delta_qm =   0.105049E-03 delta_en =   0.744889E-02 tol =   0.100000E-03
 Iteration #         29
  pAp =    7.5699740646639162E-007  rzold =    4.9225811352308639E-007  alpha =   0.65027714668259062     
 delta_qm =   0.172635E-03 delta_en =   0.201169E-01 tol =   0.100000E-03
 Iteration #         30
  pAp =   -1.0681622411442703E-005  rzold =    1.4616597909805185E-006  alpha =  -0.13683874365515050     
 delta_qm =   0.954785E-04 delta_en =   0.615339E-02 tol =   0.100000E-03
 Iteration #         31
  pAp =    4.3413607547134668E-007  rzold =   -2.8624895074768018E-007  alpha =  -0.65935306214047362     
 delta_qm =   0.815901E-04 delta_en =   0.449344E-02 tol =   0.100000E-03
 Iteration #         32
  pAp =    2.8611039836397697E-007  rzold =    3.2427311719880044E-007  alpha =    1.1333845922869066     
 delta_qm =   0.414050E-04 delta_en =   0.115720E-02 tol =   0.100000E-03
 Iteration #         33
  pAp =    2.2554177426138423E-007  rzold =    1.5113110780823950E-007  alpha =   0.67008033568580105     
 delta_qm =   0.233612E-04 delta_en =   0.368377E-03 tol =   0.100000E-03
 Iteration #         34
  pAp =    5.2239025995096579E-007  rzold =    8.2433347252003256E-008  alpha =   0.15780031438515119     
 delta_qm =   0.186290E-04 delta_en =   0.234253E-03 tol =   0.100000E-03
 Iteration #         35
  pAp =    2.9530004425549769E-006  rzold =    2.8068868697934416E-007  alpha =    9.5052030109581839E-002
 delta_qm =   0.974884E-05 delta_en =   0.641520E-04 tol =   0.100000E-03
 Charges are converged, EXIT

%%%% ELECTRONS %%%%%%%%%%%%%%%%%%%%%%%%%%%%%%%%%%%%%%%%%%%%%%%%%%%%%%%%%%%%%%%%%
 number of electrons        =         89
 total electronic charge    =     89.0000000
 number of spin components  =  1

%%%% BOUNDARY %%%%%%%%%%%%%%%%%%%%%%%%%%%%%%%%%%%%%%%%%%%%%%%%%%%%%%%%%%%%%%%%%%
 boundary mode              = full                 
 boundary is built as a function of a smooth density
 function type              =  2 
 using the modified SCCS function with parameters 
 rhomax                     =      0.0050000 
 rhomin                     =      0.0001000 
 volume of the QM region    =   1485.8752893 
 surface of the QM region   =    275.8882539 

%%%% DIELECTRIC %%%%%%%%%%%%%%%%%%%%%%%%%%%%%%%%%%%%%%%%%%%%%%%%%%%%%%%%%%%%%%%%%
 dielectric build on homogeneous background
 environment bulk permitt.  =    100.0000000 
 dielectric flags
 need gradient              =  F 
 need factor depend. sqrt   =  T 
 need gradient of logarithm =  T 

%%%% COMPUTE ELECTROSTATIC POTENTIAL %%%%%%%%%%%%%%%%%%%%%%%%%%%%%%%%%%%%%%%%%%%
 Warning: bad guess with residual norm =   0.859088E+02, reset to no guess
 Iteration #          1
  pAp =    1271.5151093716654       rzold =    1269.4885758652895       alpha =   0.99840620572147398     
 delta_qm =   0.960630E-01 delta_en =   0.622897E+04 tol =   0.100000E-03
 Iteration #          2
  pAp =    1231.3907706381412       rzold =    39.544203510501085       alpha =    3.2113448024308454E-002
 delta_qm =   0.963005E-01 delta_en =   0.625981E+04 tol =   0.100000E-03
 Iteration #          3
  pAp =    41.015768353157512       rzold =    4.6031846026148129       alpha =   0.11222963234481127     
 delta_qm =   0.103597E+00 delta_en =   0.724436E+04 tol =   0.100000E-03
 Iteration #          4
  pAp =   -3.1226590193043737       rzold =   0.75586350884015385       alpha =  -0.24205765156150014     
 delta_qm =   0.615858E-01 delta_en =   0.256014E+04 tol =   0.100000E-03
 Iteration #          5
  pAp =   0.83043636179491376       rzold =  -0.49998847715040601       alpha =  -0.60207922021830274     
 delta_qm =   0.152908E-01 delta_en =   0.157821E+03 tol =   0.100000E-03
 Iteration #          6
  pAp =   0.55379635484761203       rzold =   0.18862146902249000       alpha =   0.34059716603658924     
 delta_qm =   0.501622E-02 delta_en =   0.169846E+02 tol =   0.100000E-03
 Iteration #          7
  pAp =    4.2103162088658344E-002  rzold =    1.6293810254214718E-002  alpha =   0.38699730485572975     
 delta_qm =   0.159478E-02 delta_en =   0.171675E+01 tol =   0.100000E-03
 Iteration #          8
  pAp =    5.1964441906581244E-003  rzold =    2.1888659727545539E-003  alpha =   0.42122380082318100     
 delta_qm =   0.104913E-02 delta_en =   0.742959E+00 tol =   0.100000E-03
 Iteration #          9
  pAp =    1.1715304995115489E-003  rzold =    3.8576223269234532E-004  alpha =   0.32928057174199288     
 delta_qm =   0.101887E-02 delta_en =   0.700710E+00 tol =   0.100000E-03
 Iteration #         10
  pAp =    2.5407406152525431E-004  rzold =    1.3659185352953089E-004  alpha =   0.53760644714987560     
 delta_qm =   0.813931E-03 delta_en =   0.447176E+00 tol =   0.100000E-03
 Iteration #         11
  pAp =    8.6733447408168400E-005  rzold =    8.7423206183804818E-005  alpha =    1.0079526272303050     
 delta_qm =   0.303262E-03 delta_en =   0.620784E-01 tol =   0.100000E-03
 Iteration #         12
  pAp =    4.4618307291191707E-004  rzold =    7.0099700756044562E-005  alpha =   0.15710972695255798     
 delta_qm =   0.323022E-03 delta_en =   0.704317E-01 tol =   0.100000E-03
 Iteration #         13
  pAp =    2.3497502985411877E-003  rzold =    2.3175184155881145E-004  alpha =    9.8628284759743029E-002
 delta_qm =   0.183190E-03 delta_en =   0.226521E-01 tol =   0.100000E-03
 Iteration #         14
  pAp =    4.4298786793316983E-005  rzold =    1.6094188706741214E-005  alpha =   0.36330992046872990     
 delta_qm =   0.132483E-03 delta_en =   0.118475E-01 tol =   0.100000E-03
 Iteration #         15
  pAp =    1.3634876775614119E-005  rzold =    5.0912916946545011E-006  alpha =   0.37340210538317736     
 delta_qm =   0.112605E-03 delta_en =   0.855894E-02 tol =   0.100000E-03
 Iteration #         16
  pAp =    3.6629302565105129E-006  rzold =    2.4326958429228513E-006  alpha =   0.66413927445082088     
 delta_qm =   0.124962E-03 delta_en =   0.105404E-01 tol =   0.100000E-03
 Iteration #         17
  pAp =    1.5792557484344843E-006  rzold =    2.1998256622881011E-006  alpha =    1.3929508659181944     
 delta_qm =   0.162590E-03 delta_en =   0.178440E-01 tol =   0.100000E-03
 Iteration #         18
  pAp =    4.4712144100038574E-006  rzold =    7.7258417364660218E-006  alpha =    1.7279067895246287     
 delta_qm =   0.262671E-03 delta_en =   0.465724E-01 tol =   0.100000E-03
 Iteration #         19
  pAp =    1.9835743745062186E-005  rzold =    2.1454181987359232E-005  alpha =    1.0815920120313074     
 delta_qm =   0.350031E-03 delta_en =   0.827022E-01 tol =   0.100000E-03
 Iteration #         20
  pAp =    2.9481938108603817E-005  rzold =    2.1461872844873158E-005  alpha =   0.72796682381643918     
 delta_qm =   0.326468E-03 delta_en =   0.719426E-01 tol =   0.100000E-03
 Iteration #         21
  pAp =    1.0198639713233848E-005  rzold =    1.0924576321863472E-005  alpha =    1.0711797483822907     
 delta_qm =   0.172177E-03 delta_en =   0.200103E-01 tol =   0.100000E-03
 Iteration #         22
  pAp =    4.3650021638086190E-005  rzold =    7.9414198035443871E-006  alpha =   0.18193392592995228     
 delta_qm =   0.146517E-03 delta_en =   0.144904E-01 tol =   0.100000E-03
 Iteration #         23
  pAp =    3.2239224907618200E-004  rzold =    3.1001300523834364E-005  alpha =    9.6160191855321833E-002
 delta_qm =   0.104415E-03 delta_en =   0.735915E-02 tol =   0.100000E-03
 Iteration #         24
  pAp =    4.4935925080647277E-006  rzold =    2.2413042255266588E-006  alpha =   0.49877780895890128     
 delta_qm =   0.725928E-04 delta_en =   0.355705E-02 tol =   0.100000E-03
 Iteration #         25
  pAp =    2.2312452818007550E-006  rzold =    7.4619310737152351E-007  alpha =   0.33442899059905185     
 delta_qm =   0.529372E-04 delta_en =   0.189158E-02 tol =   0.100000E-03
 Iteration #         26
  pAp =    2.2393885440059937E-006  rzold =    7.0113546811021250E-007  alpha =   0.31309237067720569     
 delta_qm =   0.371368E-04 delta_en =   0.930920E-03 tol =   0.100000E-03
 Iteration #         27
  pAp =    5.1020300354244550E-007  rzold =    2.7795248059612572E-007  alpha =   0.54478801313642589     
 delta_qm =   0.244157E-04 delta_en =   0.402385E-03 tol =   0.100000E-03
 Iteration #         28
  pAp =    1.5902646434323683E-007  rzold =    1.1853816518371318E-007  alpha =   0.74539898546612204     
 delta_qm =   0.117274E-04 delta_en =   0.928348E-04 tol =   0.100000E-03
 Charges are converged, EXIT

%%%% ELECTRONS %%%%%%%%%%%%%%%%%%%%%%%%%%%%%%%%%%%%%%%%%%%%%%%%%%%%%%%%%%%%%%%%%
 number of electrons        =         89
 total electronic charge    =     89.0000000
 number of spin components  =  1

%%%% BOUNDARY %%%%%%%%%%%%%%%%%%%%%%%%%%%%%%%%%%%%%%%%%%%%%%%%%%%%%%%%%%%%%%%%%%
 boundary mode              = full                 
 boundary is built as a function of a smooth density
 function type              =  2 
 using the modified SCCS function with parameters 
 rhomax                     =      0.0050000 
 rhomin                     =      0.0001000 
 volume of the QM region    =   1480.8613169 
 surface of the QM region   =    267.7084733 

%%%% DIELECTRIC %%%%%%%%%%%%%%%%%%%%%%%%%%%%%%%%%%%%%%%%%%%%%%%%%%%%%%%%%%%%%%%%%
 dielectric build on homogeneous background
 environment bulk permitt.  =    100.0000000 
 dielectric flags
 need gradient              =  F 
 need factor depend. sqrt   =  T 
 need gradient of logarithm =  T 

%%%% COMPUTE ELECTROSTATIC POTENTIAL %%%%%%%%%%%%%%%%%%%%%%%%%%%%%%%%%%%%%%%%%%%
 Warning: bad guess with residual norm =   0.358806E+02, reset to no guess
 Iteration #          1
  pAp =    1271.9642507073947       rzold =    1269.8126125562521       alpha =   0.99830841303130491     
 delta_qm =   0.815206E-01 delta_en =   0.448579E+04 tol =   0.100000E-03
 Iteration #          2
  pAp =    1266.8500881444120       rzold =    41.869081861373445       alpha =    3.3049752494946086E-002
 delta_qm =   0.763514E-01 delta_en =   0.393494E+04 tol =   0.100000E-03
 Iteration #          3
  pAp =    45.982649306126504       rzold =    5.2502868116388246       alpha =   0.11417973715880050     
 delta_qm =   0.783387E-01 delta_en =   0.414244E+04 tol =   0.100000E-03
 Iteration #          4
  pAp =   -2.8742530355755544       rzold =   0.95835088197200669       alpha =  -0.33342606587178980     
 delta_qm =   0.418606E-01 delta_en =   0.118281E+04 tol =   0.100000E-03
 Iteration #          5
  pAp =    1.9875923226203067       rzold =  -0.82960475602981065       alpha =  -0.41739180947132865     
 delta_qm =   0.105326E-01 delta_en =   0.748811E+02 tol =   0.100000E-03
 Iteration #          6
  pAp =   0.67167835485103933       rzold =   0.21244841812046139       alpha =   0.31629487028441894     
 delta_qm =   0.344764E-02 delta_en =   0.802319E+01 tol =   0.100000E-03
 Iteration #          7
  pAp =    3.8247716147103893E-002  rzold =    1.4810460057526596E-002  alpha =   0.38722469076491617     
 delta_qm =   0.117955E-02 delta_en =   0.939149E+00 tol =   0.100000E-03
 Iteration #          8
  pAp =    4.2503702627325959E-003  rzold =    1.8511423732413576E-003  alpha =   0.43552496813565694     
 delta_qm =   0.789365E-03 delta_en =   0.420591E+00 tol =   0.100000E-03
 Iteration #          9
  pAp =    1.0882348427758873E-003  rzold =    3.6957965032698576E-004  alpha =   0.33961387358656514     
 delta_qm =   0.738991E-03 delta_en =   0.368623E+00 tol =   0.100000E-03
 Iteration #         10
  pAp =    2.6400726629855398E-004  rzold =    1.3287663442516145E-004  alpha =   0.50330673200069131     
 delta_qm =   0.601490E-03 delta_en =   0.244208E+00 tol =   0.100000E-03
 Iteration #         11
  pAp =    8.5010647076690516E-005  rzold =    7.9766761383203807E-005  alpha =   0.93831495378742324     
 delta_qm =   0.284658E-03 delta_en =   0.546955E-01 tol =   0.100000E-03
 Iteration #         12
  pAp =    1.0876395865715713E-004  rzold =    5.8100305189521640E-005  alpha =   0.53418711406656205     
 delta_qm =   0.102845E-03 delta_en =   0.713952E-02 tol =   0.100000E-03
 Iteration #         13
  pAp =    1.4190770266692134E-003  rzold =    5.5041033115060380E-005  alpha =    3.8786501423569611E-002
 delta_qm =   0.116501E-03 delta_en =   0.916150E-02 tol =   0.100000E-03
 Iteration #         14
  pAp =    4.8817088088300438E-005  rzold =    1.5921200180681451E-005  alpha =   0.32613989904279328     
 delta_qm =   0.864941E-04 delta_en =   0.504983E-02 tol =   0.100000E-03
 Iteration #         15
  pAp =    4.9200670715017851E-006  rzold =    2.5575512334647529E-006  alpha =   0.51982040006704511     
 delta_qm =   0.726746E-04 delta_en =   0.356508E-02 tol =   0.100000E-03
 Iteration #         16
  pAp =    2.7745890995339823E-006  rzold =    1.7531567031754190E-006  alpha =   0.63186174250806282     
 delta_qm =   0.816975E-04 delta_en =   0.450527E-02 tol =   0.100000E-03
 Iteration #         17
  pAp =    2.1123555159799781E-006  rzold =    2.0223229429702518E-006  alpha =   0.95737811541256690     
 delta_qm =   0.104323E-03 delta_en =   0.734625E-02 tol =   0.100000E-03
 Iteration #         18
  pAp =    4.3216723712578558E-006  rzold =    5.9576909572363559E-006  alpha =    1.3785614561758934     
 delta_qm =   0.186160E-03 delta_en =   0.233924E-01 tol =   0.100000E-03
 Iteration #         19
  pAp =    9.9565925173292624E-006  rzold =    1.3460775469285175E-005  alpha =    1.3519460042034410     
 delta_qm =   0.234950E-03 delta_en =   0.372610E-01 tol =   0.100000E-03
 Iteration #         20
  pAp =    2.0603630567937823E-005  rzold =    1.6958766142793503E-005  alpha =   0.82309601149536016     
 delta_qm =   0.247692E-03 delta_en =   0.414121E-01 tol =   0.100000E-03
 Iteration #         21
  pAp =    8.3208305806527376E-006  rzold =    1.0452181894680200E-005  alpha =    1.2561464619870035     
 delta_qm =   0.139256E-03 delta_en =   0.130899E-01 tol =   0.100000E-03
 Iteration #         22
  pAp =    1.3426172627307902E-005  rzold =    9.1666523855594316E-006  alpha =   0.68274501155415634     
 delta_qm =   0.104662E-03 delta_en =   0.739405E-02 tol =   0.100000E-03
 Iteration #         23
  pAp =    9.8949476476335212E-005  rzold =    6.2111928528514882E-006  alpha =    6.2771356393552608E-002
 delta_qm =   0.106998E-03 delta_en =   0.772785E-02 tol =   0.100000E-03
 Iteration #         24
  pAp =    2.6700146203805957E-005  rzold =    6.5322569520376055E-006  alpha =   0.24465247876082674     
 delta_qm =   0.789356E-04 delta_en =   0.420581E-02 tol =   0.100000E-03
 Iteration #         25
  pAp =    1.5281502607768698E-006  rzold =    1.0288401044705287E-006  alpha =   0.67325846867146066     
 delta_qm =   0.431574E-04 delta_en =   0.125723E-02 tol =   0.100000E-03
 Iteration #         26
  pAp =    2.0624145489159727E-006  rzold =    7.1983561131671777E-007  alpha =   0.34902566590944151     
 delta_qm =   0.304466E-04 delta_en =   0.625722E-03 tol =   0.100000E-03
 Iteration #         27
  pAp =    2.3797671149757603E-006  rzold =    6.1490401381160037E-007  alpha =   0.25838831452961886     
 delta_qm =   0.176575E-04 delta_en =   0.210456E-03 tol =   0.100000E-03
 Iteration #         28
  pAp =    2.7672083683680976E-007  rzold =    1.5253336663731901E-007  alpha =   0.55121749551253463     
 delta_qm =   0.833327E-05 delta_en =   0.468743E-04 tol =   0.100000E-03
 Charges are converged, EXIT

%%%% ELECTRONS %%%%%%%%%%%%%%%%%%%%%%%%%%%%%%%%%%%%%%%%%%%%%%%%%%%%%%%%%%%%%%%%%
 number of electrons        =         89
 total electronic charge    =     89.0000000
 number of spin components  =  1

%%%% BOUNDARY %%%%%%%%%%%%%%%%%%%%%%%%%%%%%%%%%%%%%%%%%%%%%%%%%%%%%%%%%%%%%%%%%%
 boundary mode              = full                 
 boundary is built as a function of a smooth density
 function type              =  2 
 using the modified SCCS function with parameters 
 rhomax                     =      0.0050000 
 rhomin                     =      0.0001000 
 volume of the QM region    =   1477.0821863 
 surface of the QM region   =    266.9034788 

%%%% DIELECTRIC %%%%%%%%%%%%%%%%%%%%%%%%%%%%%%%%%%%%%%%%%%%%%%%%%%%%%%%%%%%%%%%%%
 dielectric build on homogeneous background
 environment bulk permitt.  =    100.0000000 
 dielectric flags
 need gradient              =  F 
 need factor depend. sqrt   =  T 
 need gradient of logarithm =  T 

%%%% COMPUTE ELECTROSTATIC POTENTIAL %%%%%%%%%%%%%%%%%%%%%%%%%%%%%%%%%%%%%%%%%%%
 Warning: bad guess with residual norm =   0.244109E+02, reset to no guess
 Iteration #          1
  pAp =    1271.9576559772904       rzold =    1269.7445581772054       alpha =   0.99826008531833976     
 delta_qm =   0.787398E-01 delta_en =   0.418497E+04 tol =   0.100000E-03
 Iteration #          2
  pAp =    1330.9338187327530       rzold =    43.800581703764806       alpha =    3.2909661688114197E-002
 delta_qm =   0.690637E-01 delta_en =   0.321961E+04 tol =   0.100000E-03
 Iteration #          3
  pAp =    47.189955494975955       rzold =    5.3767308524449007       alpha =   0.11393803609366257     
 delta_qm =   0.695644E-01 delta_en =   0.326646E+04 tol =   0.100000E-03
 Iteration #          4
  pAp =   -2.7144301453682962       rzold =   0.96175435421594280       alpha =  -0.35431169811350999     
 delta_qm =   0.368094E-01 delta_en =   0.914581E+03 tol =   0.100000E-03
 Iteration #          5
  pAp =    2.2833806100584026       rzold =  -0.89790283696994733       alpha =  -0.39323397641840419     
 delta_qm =   0.968315E-02 delta_en =   0.632903E+02 tol =   0.100000E-03
 Iteration #          6
  pAp =   0.68914261460843285       rzold =   0.21598194593556436       alpha =   0.31340674826542853     
 delta_qm =   0.296370E-02 delta_en =   0.592888E+01 tol =   0.100000E-03
 Iteration #          7
  pAp =    3.7617954892919782E-002  rzold =    1.4410030895094897E-002  alpha =   0.38306258104974927     
 delta_qm =   0.107494E-02 delta_en =   0.779954E+00 tol =   0.100000E-03
 Iteration #          8
  pAp =    4.1932547624378702E-003  rzold =    1.8205741591565297E-003  alpha =   0.43416731448439022     
 delta_qm =   0.731379E-03 delta_en =   0.361067E+00 tol =   0.100000E-03
 Iteration #          9
  pAp =    1.1566697800438051E-003  rzold =    3.8694525505586773E-004  alpha =   0.33453390218357176     
 delta_qm =   0.685346E-03 delta_en =   0.317047E+00 tol =   0.100000E-03
 Iteration #         10
  pAp =    2.6935392866365358E-004  rzold =    1.3725237678837918E-004  alpha =   0.50956144381977198     
 delta_qm =   0.561755E-03 delta_en =   0.213009E+00 tol =   0.100000E-03
 Iteration #         11
  pAp =    8.1721225969007394E-005  rzold =    7.9908603169464158E-005  alpha =   0.97781943701834984     
 delta_qm =   0.263353E-03 delta_en =   0.468146E-01 tol =   0.100000E-03
 Iteration #         12
  pAp =    1.2575722853821829E-004  rzold =    5.9681567697445009E-005  alpha =   0.47457763176855844     
 delta_qm =   0.209958E-03 delta_en =   0.297556E-01 tol =   0.100000E-03
 Iteration #         13
  pAp =    4.4159441581313194E-003  rzold =    1.6461243146615175E-004  alpha =    3.7276837199818724E-002
 delta_qm =   0.125644E-03 delta_en =   0.106559E-01 tol =   0.100000E-03
 Iteration #         14
  pAp =    4.8357507199800644E-005  rzold =    1.6528428806025872E-005  alpha =   0.34179654335230109     
 delta_qm =   0.113035E-03 delta_en =   0.862434E-02 tol =   0.100000E-03
 Iteration #         15
  pAp =    1.4372873005573021E-005  rzold =    5.7606319873065442E-006  alpha =   0.40079892065232076     
 delta_qm =   0.106578E-03 delta_en =   0.766726E-02 tol =   0.100000E-03
 Iteration #         16
  pAp =    3.3592310054137914E-006  rzold =    3.8144472785626709E-006  alpha =    1.1355120479702783     
 delta_qm =   0.127722E-03 delta_en =   0.110113E-01 tol =   0.100000E-03
 Iteration #         17
  pAp =    2.1254193627592360E-006  rzold =    6.1887714170913075E-006  alpha =    2.9117883865784475     
 delta_qm =   0.228406E-03 delta_en =   0.352142E-01 tol =   0.100000E-03
 Iteration #         18
  pAp =    2.0501953281260549E-005  rzold =    2.8864590029219818E-005  alpha =    1.4078946348786674     
 delta_qm =   0.292851E-03 delta_en =   0.578890E-01 tol =   0.100000E-03
 Iteration #         19
  pAp =    5.3316657119790950E-005  rzold =    3.7992592352304101E-005  alpha =   0.71258391663496445     
 delta_qm =   0.232189E-03 delta_en =   0.363905E-01 tol =   0.100000E-03
 Iteration #         20
  pAp =    3.2670924479436855E-005  rzold =    1.6826608406015073E-005  alpha =   0.51503312728740736     
 delta_qm =   0.211277E-03 delta_en =   0.301305E-01 tol =   0.100000E-03
 Iteration #         21
  pAp =    1.2544536480885732E-005  rzold =    9.4806102850877402E-006  alpha =   0.75575612534855030     
 delta_qm =   0.846512E-04 delta_en =   0.483693E-02 tol =   0.100000E-03
 Iteration #         22
  pAp =    9.6092592370520323E-006  rzold =    5.3164222122121074E-006  alpha =   0.55326035868745083     
 delta_qm =   0.695609E-04 delta_en =   0.326613E-02 tol =   0.100000E-03
 Iteration #         23
  pAp =    7.1740129080868337E-005  rzold =    3.9893743579471771E-006  alpha =    5.5608686645241399E-002
 delta_qm =   0.683303E-04 delta_en =   0.315160E-02 tol =   0.100000E-03
 Iteration #         24
  pAp =    1.4060839330678926E-005  rzold =    3.2371451679157078E-006  alpha =   0.23022417736135262     
 delta_qm =   0.512178E-04 delta_en =   0.177070E-02 tol =   0.100000E-03
 Iteration #         25
  pAp =    2.7267091498132814E-006  rzold =    7.3353861122772463E-007  alpha =   0.26901974905462711     
 delta_qm =   0.409203E-04 delta_en =   0.113027E-02 tol =   0.100000E-03
 Iteration #         26
  pAp =    1.3653066098614010E-006  rzold =    5.5499388639858674E-007  alpha =   0.40649761920871891     
 delta_qm =   0.239317E-04 delta_en =   0.386591E-03 tol =   0.100000E-03
 Iteration #         27
  pAp =    3.7808848976807824E-007  rzold =    2.1306220025472951E-007  alpha =   0.56352469334737787     
 delta_qm =   0.107302E-04 delta_en =   0.777179E-04 tol =   0.100000E-03
 Charges are converged, EXIT

%%%% ELECTRONS %%%%%%%%%%%%%%%%%%%%%%%%%%%%%%%%%%%%%%%%%%%%%%%%%%%%%%%%%%%%%%%%%
 number of electrons        =         89
 total electronic charge    =     89.0000000
 number of spin components  =  1

%%%% BOUNDARY %%%%%%%%%%%%%%%%%%%%%%%%%%%%%%%%%%%%%%%%%%%%%%%%%%%%%%%%%%%%%%%%%%
 boundary mode              = full                 
 boundary is built as a function of a smooth density
 function type              =  2 
 using the modified SCCS function with parameters 
 rhomax                     =      0.0050000 
 rhomin                     =      0.0001000 
 volume of the QM region    =   1477.8757299 
 surface of the QM region   =    267.4842934 

%%%% DIELECTRIC %%%%%%%%%%%%%%%%%%%%%%%%%%%%%%%%%%%%%%%%%%%%%%%%%%%%%%%%%%%%%%%%%
 dielectric build on homogeneous background
 environment bulk permitt.  =    100.0000000 
 dielectric flags
 need gradient              =  F 
 need factor depend. sqrt   =  T 
 need gradient of logarithm =  T 

%%%% COMPUTE ELECTROSTATIC POTENTIAL %%%%%%%%%%%%%%%%%%%%%%%%%%%%%%%%%%%%%%%%%%%
 Warning: bad guess with residual norm =   0.437478E+00, reset to no guess
 Iteration #          1
  pAp =    1272.2448417938542       rzold =    1269.9200587358939       alpha =   0.99817269209385640     
 delta_qm =   0.808498E-01 delta_en =   0.441226E+04 tol =   0.100000E-03
 Iteration #          2
  pAp =    1492.9468769162906       rzold =    48.170118764419037       alpha =    3.2265125778564413E-002
 delta_qm =   0.712403E-01 delta_en =   0.342575E+04 tol =   0.100000E-03
 Iteration #          3
  pAp =    44.396882519111671       rzold =    5.1802569089135693       alpha =   0.11668064546387029     
 delta_qm =   0.727626E-01 delta_en =   0.357372E+04 tol =   0.100000E-03
 Iteration #          4
  pAp =   -2.8167196561725003       rzold =   0.96671461125387337       alpha =  -0.34320583134194249     
 delta_qm =   0.386052E-01 delta_en =   0.100599E+04 tol =   0.100000E-03
 Iteration #          5
  pAp =    2.1398215685483719       rzold =  -0.86883892355104708       alpha =  -0.40603335171560895     
 delta_qm =   0.985372E-02 delta_en =   0.655397E+02 tol =   0.100000E-03
 Iteration #          6
  pAp =   0.66324028541944924       rzold =   0.20918684724649111       alpha =   0.31540129851158888     
 delta_qm =   0.310626E-02 delta_en =   0.651297E+01 tol =   0.100000E-03
 Iteration #          7
  pAp =    3.6961176553190728E-002  rzold =    1.4247558971226560E-002  alpha =   0.38547363206154805     
 delta_qm =   0.109578E-02 delta_en =   0.810492E+00 tol =   0.100000E-03
 Iteration #          8
  pAp =    4.0991025733646399E-003  rzold =    1.7951403314984246E-003  alpha =   0.43793496243860303     
 delta_qm =   0.743760E-03 delta_en =   0.373395E+00 tol =   0.100000E-03
 Iteration #          9
  pAp =    1.0588885027559901E-003  rzold =    3.6261041199588291E-004  alpha =   0.34244437544851003     
 delta_qm =   0.697999E-03 delta_en =   0.328862E+00 tol =   0.100000E-03
 Iteration #         10
  pAp =    2.6671258151068596E-004  rzold =    1.3428633820743223E-004  alpha =   0.50348707753800503     
 delta_qm =   0.574297E-03 delta_en =   0.222626E+00 tol =   0.100000E-03
 Iteration #         11
  pAp =    8.3915820347908526E-005  rzold =    8.1708853798992509E-005  alpha =   0.97370023268835237     
 delta_qm =   0.277956E-03 delta_en =   0.521503E-01 tol =   0.100000E-03
 Iteration #         12
  pAp =    1.9339705951673954E-004  rzold =    6.4746444227214278E-005  alpha =   0.33478504993303754     
 delta_qm =   0.300582E-03 delta_en =   0.609858E-01 tol =   0.100000E-03
 Iteration #         13
  pAp =    5.9588968474466606E-003  rzold =    3.1076530306056786E-004  alpha =    5.2151482231770518E-002
 delta_qm =   0.170506E-03 delta_en =   0.196237E-01 tol =   0.100000E-03
 Iteration #         14
  pAp =    3.5416304445837756E-005  rzold =    1.6884056066334755E-005  alpha =   0.47673116465766729     
 delta_qm =   0.164935E-03 delta_en =   0.183625E-01 tol =   0.100000E-03
 Iteration #         15
  pAp =    1.2259759594137275E-005  rzold =    7.6545013132775263E-006  alpha =   0.62435982161819681     
 delta_qm =   0.166919E-03 delta_en =   0.188069E-01 tol =   0.100000E-03
 Iteration #         16
  pAp =    1.3996753031601042E-005  rzold =    1.3157666763761787E-005  alpha =   0.94005136291646962     
 delta_qm =   0.220451E-03 delta_en =   0.328041E-01 tol =   0.100000E-03
 Iteration #         17
  pAp =    9.3378994149886659E-006  rzold =    2.1995985644698016E-005  alpha =    2.3555603532622453     
 delta_qm =   0.348873E-03 delta_en =   0.821559E-01 tol =   0.100000E-03
 Iteration #         18
  pAp =    1.0267229032360905E-004  rzold =    8.7383414950656911E-005  alpha =   0.85109053937762869     
 delta_qm =   0.412928E-03 delta_en =   0.115094E+00 tol =   0.100000E-03
 Iteration #         19
  pAp =    1.5861462418937221E-004  rzold =    8.1989580329590444E-005  alpha =   0.51691059855680110     
 delta_qm =   0.252924E-03 delta_en =   0.431802E-01 tol =   0.100000E-03
 Iteration #         20
  pAp =    5.0516240209014465E-005  rzold =    2.6152485955126579E-005  alpha =   0.51770452129689082     
 delta_qm =   0.208922E-03 delta_en =   0.294627E-01 tol =   0.100000E-03
 Iteration #         21
  pAp =    8.0942465546598442E-006  rzold =    7.1999969975103548E-006  alpha =   0.88952034619767406     
 delta_qm =   0.921044E-04 delta_en =   0.572617E-02 tol =   0.100000E-03
 Iteration #         22
  pAp =    7.6407188940924906E-006  rzold =    4.2501753212038301E-006  alpha =   0.55625332905388025     
 delta_qm =   0.572258E-04 delta_en =   0.221049E-02 tol =   0.100000E-03
 Iteration #         23
  pAp =    6.7896149382980678E-005  rzold =    3.4701673962517794E-006  alpha =    5.1109929322761205E-002
 delta_qm =   0.557777E-04 delta_en =   0.210003E-02 tol =   0.100000E-03
 Iteration #         24
  pAp =    9.4478419161496855E-006  rzold =    2.3497946323352035E-006  alpha =   0.24871231474762270     
 delta_qm =   0.441169E-04 delta_en =   0.131375E-02 tol =   0.100000E-03
 Iteration #         25
  pAp =    3.4839406224678790E-006  rzold =    7.4041602618985062E-007  alpha =   0.21252257326514670     
 delta_qm =   0.365047E-04 delta_en =   0.899500E-03 tol =   0.100000E-03
 Iteration #         26
  pAp =    5.9164669339225953E-007  rzold =    3.1930113584769892E-007  alpha =   0.53968210997167443     
 delta_qm =   0.209443E-04 delta_en =   0.296099E-03 tol =   0.100000E-03
 Iteration #         27
  pAp =    2.5037542838335868E-007  rzold =    1.4848598074310818E-007  alpha =   0.59305332676558031     
 delta_qm =   0.988703E-05 delta_en =   0.659835E-04 tol =   0.100000E-03
 Charges are converged, EXIT

%%%% ELECTRONS %%%%%%%%%%%%%%%%%%%%%%%%%%%%%%%%%%%%%%%%%%%%%%%%%%%%%%%%%%%%%%%%%
 number of electrons        =         89
 total electronic charge    =     89.0000000
 number of spin components  =  1

%%%% BOUNDARY %%%%%%%%%%%%%%%%%%%%%%%%%%%%%%%%%%%%%%%%%%%%%%%%%%%%%%%%%%%%%%%%%%
 boundary mode              = full                 
 boundary is built as a function of a smooth density
 function type              =  2 
 using the modified SCCS function with parameters 
 rhomax                     =      0.0050000 
 rhomin                     =      0.0001000 
 volume of the QM region    =   1477.8757299 
 surface of the QM region   =    267.4842934 

%%%% DIELECTRIC %%%%%%%%%%%%%%%%%%%%%%%%%%%%%%%%%%%%%%%%%%%%%%%%%%%%%%%%%%%%%%%%%
 dielectric build on homogeneous background
 environment bulk permitt.  =    100.0000000 
 dielectric flags
 need gradient              =  F 
 need factor depend. sqrt   =  T 
 need gradient of logarithm =  T 
