
     Program PWSCF v.6.1 (svn rev. 13369) starts on 11Oct2017 at 15: 6:39 

     This program is part of the open-source Quantum ESPRESSO suite
     for quantum simulation of materials; please cite
         "P. Giannozzi et al., J. Phys.:Condens. Matter 21 395502 (2009);
          URL http://www.quantum-espresso.org", 
     in publications or presentations arising from this work. More details at
     http://www.quantum-espresso.org/quote

     Serial version
     Reading input from neutral.in

     Current dimensions of program PWSCF are:
     Max number of different atomic species (ntypx) = 10
     Max number of k-points (npk) =  40000
     Max angular momentum in pseudopotentials (lmaxx) =  3
               file C.pbe-rrkjus.UPF: wavefunction(s)  2S 2P renormalized
               file O.pbe-rrkjus.UPF: wavefunction(s)  2S renormalized

     gamma-point specific algorithms are used

     G-vector sticks info
     --------------------
     sticks:   dense  smooth     PW     G-vecs:    dense   smooth      PW
     Sum        2205    1099    269               330909   116965   14571



     bravais-lattice index     =            8
     lattice parameter (alat)  =      10.6881  a.u.
     unit-cell volume          =    4181.1215 (a.u.)^3
     number of atoms/cell      =           10
     number of atomic types    =            3
     number of electrons       =        90.00
     number of Kohn-Sham states=           80
     kinetic-energy cutoff     =      35.0000  Ry
     charge density cutoff     =     280.0000  Ry
     convergence threshold     =      5.0E-02
     mixing beta               =       0.7000
     number of iterations used =            8  plain     mixing
     Exchange-correlation      = PBE ( 1  4  3  4 0 0)


     Environ Module
     ==============

     Plese cite
         O. Andreussi, I. Dabo and N. Marzari, J. Chem. Phys. 136, 064102 (2012)         
     in publications or presentations arising from this work.

     compensation onset threshold      =               0.1000E+03 
     static permittivity               =                   100.00 
     epsilon calculation mode          =               electronic 

     Electrostatic Setup
     -------------------
     electrostatic problem to solve    = generalized              
     numerical solver adopted          = cg                       
     type of auxiliary density adopted = none                     
     type of core tool for poisson     = fft                      
     type of core tool for s(r) deriv  = analytic                 



     celldm(1)=  10.688100  celldm(2)=   0.866025  celldm(3)=   3.954220
     celldm(4)=   0.000000  celldm(5)=   0.000000  celldm(6)=   0.000000

     crystal axes: (cart. coord. in units of alat)
               a(1) = (   1.000000   0.000000   0.000000 )  
               a(2) = (   0.000000   0.866025   0.000000 )  
               a(3) = (   0.000000   0.000000   3.954220 )  

     reciprocal axes: (cart. coord. in units 2 pi/alat)
               b(1) = (  1.000000  0.000000  0.000000 )  
               b(2) = (  0.000000  1.154701  0.000000 )  
               b(3) = (  0.000000  0.000000  0.252894 )  


     PseudoPot. # 1 for C  read from file:
     /Users/oliviero/PWSCF/espresso-6.1-Environ-1.0/Environ/tests/../..//pseudo/C.pbe-rrkjus.UPF
     MD5 check sum: 00fb224312de0c5b6853bd333518df6f
     Pseudo is Ultrasoft, Zval =  4.0
     Generated by new atomic code, or converted to UPF format
     Using radial grid of  627 points,  4 beta functions with: 
                l(1) =   0
                l(2) =   0
                l(3) =   1
                l(4) =   1
     Q(r) pseudized with 0 coefficients 


     PseudoPot. # 2 for O  read from file:
     /Users/oliviero/PWSCF/espresso-6.1-Environ-1.0/Environ/tests/../..//pseudo/O.pbe-rrkjus.UPF
     MD5 check sum: 390ba29e75625707450f3bd3f0eb6be9
     Pseudo is Ultrasoft, Zval =  6.0
     Generated by new atomic code, or converted to UPF format
     Using radial grid of 1269 points,  4 beta functions with: 
                l(1) =   0
                l(2) =   0
                l(3) =   1
                l(4) =   1
     Q(r) pseudized with 0 coefficients 


     PseudoPot. # 3 for Pt read from file:
     /Users/oliviero/PWSCF/espresso-6.1-Environ-1.0/Environ/tests/../..//pseudo/Pt.pbe-n-rrkjus_psl.0.1.UPF
     MD5 check sum: df5be8f5ed4f66d4aed38ca70ec8d507
     Pseudo is Ultrasoft + core correction, Zval = 10.0
     Generated using "atomic" code by A. Dal Corso  v.5.0.2 svn rev. 9415
     Using radial grid of 1277 points,  6 beta functions with: 
                l(1) =   0
                l(2) =   0
                l(3) =   1
                l(4) =   1
                l(5) =   2
                l(6) =   2
     Q(r) pseudized with 0 coefficients 


     atomic species   valence    mass     pseudopotential
        C              4.00     1.00000     C ( 1.00)
        O              6.00     1.00000     O ( 1.00)
        Pt            10.00     1.00000     Pt( 1.00)

     No symmetry found



   Cartesian axes

     site n.     atom                  positions (alat units)
         1           C   tau(   1) = (   0.4991611   0.4347567   1.2070461  )
         2           O   tau(   2) = (   0.4991542   0.4322212   1.4109013  )
         3           Pt  tau(   3) = (   0.7542339   0.0091745   0.8413229  )
         4           Pt  tau(   4) = (   0.2441023   0.0091745   0.8413226  )
         5           Pt  tau(   5) = (   0.0000034   0.4416918   0.8391348  )
         6           Pt  tau(   6) = (   0.4991682   0.4417635   0.8776299  )
         7           Pt  tau(   7) = (   0.0000038   0.7300598   0.4308181  )
         8           Pt  tau(   8) = (   0.4991683   0.7202168   0.4447460  )
         9           Pt  tau(   9) = (   0.2524172   0.2949237   0.4386572  )
        10           Pt  tau(  10) = (   0.7459196   0.2949237   0.4386575  )

     number of k points=     1  Marzari-Vanderbilt smearing, width (Ry)=  0.0300
                       cart. coord. in units 2pi/alat
        k(    1) = (   0.0000000   0.0000000   0.0000000), wk =   2.0000000

     Dense  grid:   165455 G-vectors     FFT dimensions: (  60,  50, 225)

     Smooth grid:    58483 G-vectors     FFT dimensions: (  45,  36, 160)

     Estimated max dynamical RAM per process >     216.67MB

     Initial potential from superposition of free atoms
     Check: negative starting charge=   -0.001782

     starting charge   89.99859, renormalised to   90.00000

     negative rho (up, down):  1.782E-03 0.000E+00
     Starting wfc are   80 randomized atomic wfcs

     total cpu time spent up to now is       20.1 secs

     Self-consistent Calculation

     iteration #  1     ecut=    35.00 Ry     beta=0.70
     Davidson diagonalization with overlap
     ethr =  1.00E-02,  avg # of iterations =  8.0

     negative rho (up, down):  1.109E-03 0.000E+00

     add environment contribution to local potential
     polarization accuracy = 2.9E-05, # of iterations =  21

     total cpu time spent up to now is       37.1 secs

     total energy              =    -623.07845200 Ry
     Harris-Foulkes estimate   =    -624.45738907 Ry
     estimated scf accuracy    <       1.79975746 Ry
     electrostatic embedding   =       0.00000000 Ry
     correction to one-el term =       0.00000000 Ry

     iteration #  2     ecut=    35.00 Ry     beta=0.70
     Davidson diagonalization with overlap
     ethr =  2.00E-03,  avg # of iterations =  6.0

     negative rho (up, down):  1.454E-02 0.000E+00

     add environment contribution to local potential
     polarization accuracy = 6.4E-05, # of iterations =  28

     total cpu time spent up to now is       57.7 secs

     total energy              =    -621.48575676 Ry
     Harris-Foulkes estimate   =    -657.06064001 Ry
     estimated scf accuracy    <      16.72861096 Ry
     electrostatic embedding   =       0.00076539 Ry
     correction to one-el term =      30.87327789 Ry

     iteration #  3     ecut=    35.00 Ry     beta=0.70
     Davidson diagonalization with overlap
     ethr =  2.00E-03,  avg # of iterations =  6.0

     negative rho (up, down):  9.454E-03 0.000E+00

     add environment contribution to local potential
     polarization accuracy = 5.1E-05, # of iterations =  24

     total cpu time spent up to now is       76.1 secs

     total energy              =    -623.56568558 Ry
     Harris-Foulkes estimate   =    -653.04805372 Ry
     estimated scf accuracy    <       6.11046736 Ry
     electrostatic embedding   =      -0.01614073 Ry
     correction to one-el term =      28.55288996 Ry

     iteration #  4     ecut=    35.00 Ry     beta=0.70
     Davidson diagonalization with overlap
     ethr =  2.00E-03,  avg # of iterations =  1.0

     negative rho (up, down):  6.996E-03 0.000E+00

     add environment contribution to local potential
     polarization accuracy = 8.4E-05, # of iterations =  26

     total cpu time spent up to now is       94.8 secs

     total energy              =    -623.77013384 Ry
     Harris-Foulkes estimate   =    -652.23809732 Ry
     estimated scf accuracy    <       3.36238265 Ry
     electrostatic embedding   =      -0.01719249 Ry
     correction to one-el term =      27.92272107 Ry

     iteration #  5     ecut=    35.00 Ry     beta=0.70
     Davidson diagonalization with overlap
     ethr =  2.00E-03,  avg # of iterations =  8.0

     negative rho (up, down):  1.132E-02 0.000E+00

     add environment contribution to local potential
     polarization accuracy = 2.1E-05, # of iterations =  34

     total cpu time spent up to now is      118.0 secs

     total energy              =    -624.19486602 Ry
     Harris-Foulkes estimate   =    -651.52253547 Ry
     estimated scf accuracy    <       6.72081298 Ry
     electrostatic embedding   =      -0.03644067 Ry
     correction to one-el term =      27.03017666 Ry

     iteration #  6     ecut=    35.00 Ry     beta=0.70
     Davidson diagonalization with overlap
     ethr =  2.00E-03,  avg # of iterations =  8.0

     negative rho (up, down):  9.398E-03 0.000E+00

     add environment contribution to local potential
     polarization accuracy = 6.3E-05, # of iterations =  24

     total cpu time spent up to now is      137.5 secs

     total energy              =    -624.28624415 Ry
     Harris-Foulkes estimate   =    -652.79796357 Ry
     estimated scf accuracy    <      10.69562420 Ry
     electrostatic embedding   =      -0.00142064 Ry
     correction to one-el term =      28.13306968 Ry

     iteration #  7     ecut=    35.00 Ry     beta=0.70
     Davidson diagonalization with overlap
     ethr =  2.00E-03,  avg # of iterations =  6.0

     negative rho (up, down):  4.833E-03 0.000E+00

     add environment contribution to local potential
     polarization accuracy = 5.0E-05, # of iterations =  24

     total cpu time spent up to now is      157.8 secs

     total energy              =    -624.12309972 Ry
     Harris-Foulkes estimate   =    -651.20904356 Ry
     estimated scf accuracy    <       0.41191744 Ry
     electrostatic embedding   =      -0.01977758 Ry
     correction to one-el term =      27.06634226 Ry

     iteration #  8     ecut=    35.00 Ry     beta=0.70
     Davidson diagonalization with overlap
     ethr =  4.58E-04,  avg # of iterations =  3.0

     negative rho (up, down):  5.788E-03 0.000E+00

     add environment contribution to local potential
     polarization accuracy = 9.1E-05, # of iterations =  24

     total cpu time spent up to now is      176.0 secs

     total energy              =    -624.15085414 Ry
     Harris-Foulkes estimate   =    -651.58142721 Ry
     estimated scf accuracy    <       0.96530333 Ry
     electrostatic embedding   =      -0.01173456 Ry
     correction to one-el term =      27.41662490 Ry

     iteration #  9     ecut=    35.00 Ry     beta=0.70
     Davidson diagonalization with overlap
     ethr =  4.58E-04,  avg # of iterations =  1.0

     negative rho (up, down):  5.904E-03 0.000E+00

     add environment contribution to local potential
     polarization accuracy = 4.3E-05, # of iterations =  25

     total cpu time spent up to now is      194.0 secs

     total energy              =    -624.14492547 Ry
     Harris-Foulkes estimate   =    -651.47406771 Ry
     estimated scf accuracy    <       0.94999344 Ry
     electrostatic embedding   =      -0.01022201 Ry
     correction to one-el term =      27.31553007 Ry

     iteration # 10     ecut=    35.00 Ry     beta=0.70
     Davidson diagonalization with overlap
     ethr =  4.58E-04,  avg # of iterations =  1.0

     negative rho (up, down):  5.932E-03 0.000E+00

     add environment contribution to local potential
     polarization accuracy = 4.8E-05, # of iterations =  24

     total cpu time spent up to now is      211.7 secs

     total energy              =    -624.13541774 Ry
     Harris-Foulkes estimate   =    -651.49628780 Ry
     estimated scf accuracy    <       1.01753112 Ry
     electrostatic embedding   =      -0.00766215 Ry
     correction to one-el term =      27.33148498 Ry

     iteration # 11     ecut=    35.00 Ry     beta=0.70
     Davidson diagonalization with overlap
     ethr =  4.58E-04,  avg # of iterations =  1.0

     negative rho (up, down):  2.758E-03 0.000E+00

     add environment contribution to local potential
     polarization accuracy = 4.1E-05, # of iterations =  22

     total cpu time spent up to now is      228.2 secs

     total energy              =    -624.13500242 Ry
     Harris-Foulkes estimate   =    -651.19831160 Ry
     estimated scf accuracy    <       0.06571182 Ry
     electrostatic embedding   =      -0.00755735 Ry
     correction to one-el term =      27.06148317 Ry

     iteration # 12     ecut=    35.00 Ry     beta=0.70
     Davidson diagonalization with overlap
     ethr =  7.30E-05,  avg # of iterations =  4.0

     negative rho (up, down):  1.777E-03 0.000E+00

     total cpu time spent up to now is      233.5 secs

     End of self-consistent calculation

          k = 0.0000 0.0000 0.0000 (  7286 PWs)   bands (ev):

   -29.0183 -15.1687 -13.2750 -12.5275 -11.8223 -11.7852 -11.7199 -10.9991
   -10.8599 -10.0399  -9.8801  -9.7922  -9.5108  -9.4663  -9.4219  -9.2805
    -8.6353  -8.5866  -8.5311  -8.3361  -8.2511  -8.2133  -8.1630  -8.1233
    -8.1119  -7.9273  -7.9037  -7.8356  -7.7447  -7.4824  -7.3745  -6.6388
    -6.4893  -6.3881  -6.0588  -5.9686  -5.9388  -5.7519  -5.6667  -5.4691
    -5.2777  -5.2211  -5.0604  -5.0236  -5.0055  -4.9449  -4.7829  -3.7336
    -3.3275  -3.2454  -2.8324  -2.2427  -2.1254  -1.1965  -0.8076  -0.6985
    -0.3777   0.0517   0.6533   0.6944   0.9787   1.3426   2.2876   2.4844
     2.5038   2.8390   3.0806   3.3501   3.6284   3.6833   4.1272   4.2036
     4.5192   4.6923   4.9977   5.1596   5.3732   5.4385   5.5021   5.6565

     the Fermi energy is    -4.8739 ev

!    total energy              =    -624.13348773 Ry
     Harris-Foulkes estimate   =    -651.24865121 Ry
     estimated scf accuracy    <       0.00827873 Ry

     The total energy is the sum of the following terms:

     one-electron contribution =   -3991.99269569 Ry
     hartree contribution      =    2030.70709480 Ry
     xc contribution           =    -263.15407839 Ry
     ewald contribution        =    1573.20467954 Ry
     smearing contrib. (-TS)   =      -0.00663029 Ry
     electrostatic embedding   =      -0.00709181 Ry
     correction to one-el term =      27.11523411 Ry

     convergence has been achieved in  12 iterations

     negative rho (up, down):  1.777E-03 0.000E+00

     Forces acting on atoms (cartesian axes, Ry/au):

     atom    1 type  1   force =     0.00007788   -0.00718717    0.04709107
     atom    2 type  2   force =    -0.00002578    0.00164456   -0.00334351
     atom    3 type  3   force =    -0.00140197    0.00853328    0.02928564
     atom    4 type  3   force =     0.00250255    0.00874162    0.02947123
     atom    5 type  3   force =    -0.00155418    0.01569123   -0.01285925
     atom    6 type  3   force =     0.00034271    0.00975821    0.05510617
     atom    7 type  3   force =    -0.00130449   -0.00755019   -0.03975694
     atom    8 type  3   force =     0.00017191   -0.00756130   -0.03048454
     atom    9 type  3   force =     0.00993448   -0.01127658   -0.03732200
     atom   10 type  3   force =    -0.00874313   -0.01079366   -0.03718786

     Total force =     0.116333     Total SCF correction =     0.162045
     SCF correction compared to forces is large: reduce conv_thr to get better values

     Writing output data file pwscf.save

     init_run     :     19.37s CPU     19.68s WALL (       1 calls)
     electrons    :    208.76s CPU    213.57s WALL (       1 calls)
     forces       :      7.55s CPU      7.81s WALL (       1 calls)

     Called by init_run:
     wfcinit      :      0.67s CPU      0.59s WALL (       1 calls)
     potinit      :      3.31s CPU      3.38s WALL (       1 calls)

     Called by electrons:
     c_bands      :     25.64s CPU     20.60s WALL (      12 calls)
     sum_band     :     21.15s CPU     20.94s WALL (      12 calls)
     v_of_rho     :      7.36s CPU      7.99s WALL (      13 calls)
     newd         :     11.66s CPU     14.65s WALL (      13 calls)
     mix_rho      :      0.75s CPU      0.97s WALL (      12 calls)

     Called by c_bands:
     init_us_2    :      0.24s CPU      0.28s WALL (      25 calls)
     regterg      :     24.14s CPU     19.05s WALL (      12 calls)

     Called by sum_band:
     sum_band:bec :      0.00s CPU      0.00s WALL (      12 calls)
     addusdens    :     16.78s CPU     16.57s WALL (      12 calls)

     Called by *egterg:
     h_psi        :     16.20s CPU     14.74s WALL (      66 calls)
     s_psi        :      1.84s CPU      0.53s WALL (      66 calls)
     g_psi        :      0.16s CPU      0.17s WALL (      53 calls)
     rdiaghg      :      1.00s CPU      0.95s WALL (      65 calls)

     Called by h_psi:
     h_psi:pot    :     16.06s CPU     14.59s WALL (      66 calls)
     h_psi:calbec :      0.99s CPU      0.52s WALL (      66 calls)
     vloc_psi     :     13.22s CPU     13.53s WALL (      66 calls)
     add_vuspsi   :      1.85s CPU      0.54s WALL (      66 calls)

     General routines
     calbec       :      1.41s CPU      0.74s WALL (      82 calls)
     fft          :     18.43s CPU     18.81s WALL (     930 calls)
     ffts         :      0.17s CPU      0.18s WALL (      25 calls)
     fftw         :     12.44s CPU     12.71s WALL (    2996 calls)
     interpolate  :      0.82s CPU      0.96s WALL (      25 calls)
     davcio       :      0.03s CPU      0.03s WALL (       1 calls)


     Environ routines
     calc_eelect  :      0.02s CPU      0.03s WALL (      24 calls)
     calc_velect  :    136.44s CPU    142.21s WALL (      22 calls)
     dielectric   :      0.67s CPU      0.80s WALL (      13 calls)
     calc_felect  :      0.80s CPU      0.82s WALL (       1 calls)

     PWSCF        :  3m56.17s CPU     4m 1.68s WALL


   This run was terminated on:  15:10:40  11Oct2017            

=------------------------------------------------------------------------------=
   JOB DONE.
=------------------------------------------------------------------------------=

%%%% IONS %%%%%%%%%%%%%%%%%%%%%%%%%%%%%%%%%%%%%%%%%%%%%%%%%%%%%%%%%%%%%%%%%%%%%%
 number of ions             =         10
 ionic center of charge     =      0.3882415     0.3750182     0.7201831
 total ionic charge         =    -90.0000000
 ionic dipole               =      0.0000000     0.0000000     0.0000000
 ionic quadrupole (pc)      =   -730.5101255  -614.6110457  -876.7220256
 ionic quadrupole (gauss)   =   -741.7601255  -625.8610457  -887.9720256
 ion   1 type =  1 coordinates =      5.3350841     4.6467234    12.9010299
 ion   2 type =  2 coordinates =      5.3350096     4.6196233    15.0798543
 ion   3 type =  3 coordinates =      8.0613271     0.0980580     8.9921429
 ion   4 type =  3 coordinates =      2.6089894     0.0980583     8.9921406
 ion   5 type =  3 coordinates =      0.0000366     4.7208463     8.9687569
 ion   6 type =  3 coordinates =      5.3351596     4.7216127     9.3801964
 ion   7 type =  3 coordinates =      0.0000411     7.8029520     4.6046265
 ion   8 type =  3 coordinates =      5.3351612     7.6977491     4.7534894
 ion   9 type =  3 coordinates =      2.6978606     3.1521739     4.6884123
 ion  10 type =  3 coordinates =      7.9724637     3.1521745     4.6884152

%%%% SYSTEM %%%%%%%%%%%%%%%%%%%%%%%%%%%%%%%%%%%%%%%%%%%%%%%%%%%%%%%%%%%%%%%%%%%%
 system is built from all present ionic types
 system defined dimension   =  0 
 system defined axis        =  3 
 system center              =      0.3882415     0.3750182     0.7201831 
 system width               =      1.5145225 

%%%% ELECTRONS %%%%%%%%%%%%%%%%%%%%%%%%%%%%%%%%%%%%%%%%%%%%%%%%%%%%%%%%%%%%%%%%%
 number of electrons        =         90
 total electronic charge    =     90.0000000
 number of spin components  =  1

%%%% BOUNDARY %%%%%%%%%%%%%%%%%%%%%%%%%%%%%%%%%%%%%%%%%%%%%%%%%%%%%%%%%%%%%%%%%%
 boundary mode              = electronic           
 boundary is built as a function of a smooth density
 function type              =  2 
 using the modified SCCS function with parameters 
 rhomax                     =      0.0050000 
 rhomin                     =      0.0001000 

%%%% DIELECTRIC %%%%%%%%%%%%%%%%%%%%%%%%%%%%%%%%%%%%%%%%%%%%%%%%%%%%%%%%%%%%%%%%%
 dielectric build on homogeneous background
 environment bulk permitt.  =    100.0000000 
 dielectric flags
 need gradient              =  F 
 need factor depend. sqrt   =  T 
 need gradient of logarithm =  T 

%%%% COMPUTE ELECTROSTATIC POTENTIAL %%%%%%%%%%%%%%%%%%%%%%%%%%%%%%%%%%%%%%%%%%%
 Iteration #          1
  pAp =  1284.146692391548  rzold =  1283.8181484050722  alpha =  0.9997441538506291
 delta_qm =   0.177584E-01 delta_en =   0.212868E+03 tol =   0.100000E-03
 Iteration #          2
  pAp =  29.9384187969241  rzold =  2.204155322814119  alpha =  0.07362297046364305
 delta_qm =   0.157051E-01 delta_en =   0.166488E+03 tol =   0.100000E-03
 Iteration #          3
  pAp =  17.674661416860893  rzold =  1.3806458844969423  alpha =  0.07811441769288227
 delta_qm =   0.831164E-02 delta_en =   0.466312E+02 tol =   0.100000E-03
 Iteration #          4
  pAp =  0.05028916368599124  rzold =  0.03272439100517722  alpha =  0.6507245021911761
 delta_qm =   0.930200E-02 delta_en =   0.584059E+02 tol =   0.100000E-03
 Iteration #          5
  pAp =  0.2935694800647218  rzold =  0.011664290284188123  alpha =  0.03973263937932702
 delta_qm =   0.827281E-02 delta_en =   0.461966E+02 tol =   0.100000E-03
 Iteration #          6
  pAp =  -0.006058388781532622  rzold =  -0.012262618418433993  alpha =  2.0240725481027737
 delta_qm =   0.178532E-02 delta_en =   0.215148E+01 tol =   0.100000E-03
 Iteration #          7
  pAp =  0.014067239910348353  rzold =  0.006089848672776229  alpha =  0.43290998885263365
 delta_qm =   0.475655E-03 delta_en =   0.152717E+00 tol =   0.100000E-03
 Iteration #          8
  pAp =  0.0012013068249168838  rzold =  0.0004937970412115513  alpha =  0.4110498924749855
 delta_qm =   0.253898E-03 delta_en =   0.435134E-01 tol =   0.100000E-03
 Iteration #          9
  pAp =  0.0002531673821462352  rzold =  0.00009058734151152412  alpha =  0.3578160059308067
 delta_qm =   0.209304E-03 delta_en =   0.295706E-01 tol =   0.100000E-03
 Iteration #         10
  pAp =  0.000034782512029684684  rzold =  0.000019094112999669216  alpha =  0.5489572743732135
 delta_qm =   0.186704E-03 delta_en =   0.235295E-01 tol =   0.100000E-03
 Iteration #         11
  pAp =  0.000016291503028293685  rzold =  0.000014323514692334357  alpha =  0.879201548651374
 delta_qm =   0.174372E-03 delta_en =   0.205239E-01 tol =   0.100000E-03
 Iteration #         12
  pAp =  0.000012112930548043081  rzold =  0.000020397070933491226  alpha =  1.6839088486961151
 delta_qm =   0.304999E-03 delta_en =   0.627915E-01 tol =   0.100000E-03
 Iteration #         13
  pAp =  0.00006363036008862763  rzold =  0.000033893765604667204  alpha =  0.5326665691889568
 delta_qm =   0.301601E-03 delta_en =   0.614000E-01 tol =   0.100000E-03
 Iteration #         14
  pAp =  0.002853606553786678  rzold =  0.00020026163387427813  alpha =  0.07017843213477871
 delta_qm =   0.386522E-03 delta_en =   0.100845E+00 tol =   0.100000E-03
 Iteration #         15
  pAp =  0.00010461245803653542  rzold =  0.00006325465162315906  alpha =  0.6046569673476907
 delta_qm =   0.385638E-03 delta_en =   0.100384E+00 tol =   0.100000E-03
 Iteration #         16
  pAp =  0.00005463292782087906  rzold =  0.00007120260538228067  alpha =  1.3032910411780856
 delta_qm =   0.333092E-03 delta_en =   0.748916E-01 tol =   0.100000E-03
 Iteration #         17
  pAp =  0.00009765945218842946  rzold =  0.00010979799422748621  alpha =  1.1242945948092764
 delta_qm =   0.210033E-03 delta_en =   0.297768E-01 tol =   0.100000E-03
 Iteration #         18
  pAp =  0.00006474628734198488  rzold =  0.0000408370989682437  alpha =  0.6307249518809519
 delta_qm =   0.946752E-04 delta_en =   0.605029E-02 tol =   0.100000E-03
 Iteration #         19
  pAp =  0.000005635921537324811  rzold =  0.000003542952603414651  alpha =  0.6286376735287864
 delta_qm =   0.429407E-04 delta_en =   0.124463E-02 tol =   0.100000E-03
 Iteration #         20
  pAp =  7.907759806852484E-7  rzold =  4.6785879497112224E-7  alpha =  0.5916451768877683
 delta_qm =   0.211471E-04 delta_en =   0.301859E-03 tol =   0.100000E-03
 Iteration #         21
  pAp =  1.979953988031216E-7  rzold =  1.401369698297403E-7  alpha =  0.7077789215146695
 delta_qm =   0.652033E-05 delta_en =   0.286975E-04 tol =   0.100000E-03
 Charges are converged, exit!

%%%% ELECTRONS %%%%%%%%%%%%%%%%%%%%%%%%%%%%%%%%%%%%%%%%%%%%%%%%%%%%%%%%%%%%%%%%%
 number of electrons        =         90
 total electronic charge    =     90.0000000
 number of spin components  =  1

%%%% BOUNDARY %%%%%%%%%%%%%%%%%%%%%%%%%%%%%%%%%%%%%%%%%%%%%%%%%%%%%%%%%%%%%%%%%%
 boundary mode              = electronic           
 boundary is built as a function of a smooth density
 function type              =  2 
 using the modified SCCS function with parameters 
 rhomax                     =      0.0050000 
 rhomin                     =      0.0001000 

%%%% DIELECTRIC %%%%%%%%%%%%%%%%%%%%%%%%%%%%%%%%%%%%%%%%%%%%%%%%%%%%%%%%%%%%%%%%%
 dielectric build on homogeneous background
 environment bulk permitt.  =    100.0000000 
 dielectric flags
 need gradient              =  F 
 need factor depend. sqrt   =  T 
 need gradient of logarithm =  T 

%%%% COMPUTE ELECTROSTATIC POTENTIAL %%%%%%%%%%%%%%%%%%%%%%%%%%%%%%%%%%%%%%%%%%%
 Warning: bad guess with residual norm =   0.785939E+04, reset to no guess
 Iteration #          1
  pAp =  1276.4889071668765  rzold =  1275.8897870432809  alpha =  0.9995306499568999
 delta_qm =   0.112459E+00 delta_en =   0.853682E+04 tol =   0.100000E-03
 Iteration #          2
  pAp =  774.3480779390138  rzold =  20.66205829370251  alpha =  0.026683165984858058
 delta_qm =   0.371105E-01 delta_en =   0.929602E+03 tol =   0.100000E-03
 Iteration #          3
  pAp =  0.49416128276480836  rzold =  -0.0022072250260880186  alpha =  -0.004466608581187709
 delta_qm =   0.365940E-01 delta_en =   0.903909E+03 tol =   0.100000E-03
 Iteration #          4
  pAp =  0.00023100913496779105  rzold =  0.002236021785629078  alpha =  9.679365216188703
 delta_qm =   0.767687E-02 delta_en =   0.397806E+02 tol =   0.100000E-03
 Iteration #          5
  pAp =  0.08768616342890334  rzold =  0.027957992385538453  alpha =  0.31884155141771053
 delta_qm =   0.170665E-01 delta_en =   0.196605E+03 tol =   0.100000E-03
 Iteration #          6
  pAp =  -0.006871567130189907  rzold =  0.008797502198089764  alpha =  -1.2802759590950297
 delta_qm =   0.426034E-01 delta_en =   0.122516E+04 tol =   0.100000E-03
 Iteration #          7
  pAp =  0.4863916845114763  rzold =  0.06403110594191812  alpha =  0.13164514933315502
 delta_qm =   0.292555E-02 delta_en =   0.577723E+01 tol =   0.100000E-03
 Iteration #          8
  pAp =  0.0031717181222851313  rzold =  0.0012325688313687036  alpha =  0.38861234947343726
 delta_qm =   0.912993E-03 delta_en =   0.562650E+00 tol =   0.100000E-03
 Iteration #          9
  pAp =  0.0005087824340353346  rzold =  0.0001879349344569792  alpha =  0.36938172760093213
 delta_qm =   0.970544E-03 delta_en =   0.635820E+00 tol =   0.100000E-03
 Iteration #         10
  pAp =  0.00008053787451804307  rzold =  0.00004952126590001055  alpha =  0.6148817087160178
 delta_qm =   0.101187E-02 delta_en =   0.691116E+00 tol =   0.100000E-03
 Iteration #         11
  pAp =  0.00005676217768488568  rzold =  0.00006309758711201091  alpha =  1.1116132200264788
 delta_qm =   0.131073E-02 delta_en =   0.115967E+01 tol =   0.100000E-03
 Iteration #         12
  pAp =  0.000026255961977647004  rzold =  0.00014703919942416532  alpha =  5.600221372553291
 delta_qm =   0.549938E-02 delta_en =   0.204141E+02 tol =   0.100000E-03
 Iteration #         13
  pAp =  0.039890255828379226  rzold =  0.003919153291362961  alpha =  0.09824838698012932
 delta_qm =   0.676164E-02 delta_en =   0.308609E+02 tol =   0.100000E-03
 Iteration #         14
  pAp =  -0.03815563098240196  rzold =  0.010859113532734612  alpha =  -0.28460054920184713
 delta_qm =   0.668506E-02 delta_en =   0.301658E+02 tol =   0.100000E-03
 Iteration #         15
  pAp =  0.013623422441639891  rzold =  0.0029947275351898004  alpha =  0.21982196823291905
 delta_qm =   0.337789E-02 delta_en =   0.770185E+01 tol =   0.100000E-03
 Iteration #         16
  pAp =  0.0013178211875326602  rzold =  0.0006257580417270648  alpha =  0.47484290558316455
 delta_qm =   0.153168E-02 delta_en =   0.158359E+01 tol =   0.100000E-03
 Iteration #         17
  pAp =  0.00026761081995777355  rzold =  0.00019325122813395145  alpha =  0.7221353313159934
 delta_qm =   0.736722E-03 delta_en =   0.366362E+00 tol =   0.100000E-03
 Iteration #         18
  pAp =  0.00009985768567664142  rzold =  0.000058931452802941466  alpha =  0.5901544022737815
 delta_qm =   0.389223E-03 delta_en =   0.102259E+00 tol =   0.100000E-03
 Iteration #         19
  pAp =  0.00002348359428868819  rzold =  0.000011692145103895366  alpha =  0.4978856711694834
 delta_qm =   0.271045E-03 delta_en =   0.495892E-01 tol =   0.100000E-03
 Iteration #         20
  pAp =  0.000006431641856121118  rzold =  0.0000043347505567419324  alpha =  0.6739726268521103
 delta_qm =   0.171538E-03 delta_en =   0.198621E-01 tol =   0.100000E-03
 Iteration #         21
  pAp =  0.0000020864258385158625  rzold =  0.000001557917934613281  alpha =  0.7466922168302301
 delta_qm =   0.944723E-04 delta_en =   0.602438E-02 tol =   0.100000E-03
 Iteration #         22
  pAp =  8.431053167408152E-7  rzold =  5.311580635309586E-7  alpha =  0.6300020329420429
 delta_qm =   0.479062E-04 delta_en =   0.154912E-02 tol =   0.100000E-03
 Iteration #         23
  pAp =  0.000011167180276952012  rzold =  4.6448473695336397E-7  alpha =  0.041593734983576464
 delta_qm =   0.439386E-04 delta_en =   0.130316E-02 tol =   0.100000E-03
 Iteration #         24
  pAp =  5.724104808125065E-7  rzold =  2.2494776272180902E-7  alpha =  0.39298330527160774
 delta_qm =   0.347150E-04 delta_en =   0.813465E-03 tol =   0.100000E-03
 Iteration #         25
  pAp =  1.6365180651295553E-7  rzold =  5.3502071425449804E-8  alpha =  0.32692625010047965
 delta_qm =   0.390816E-04 delta_en =   0.103098E-02 tol =   0.100000E-03
 Iteration #         26
  pAp =  2.1582392484220523E-7  rzold =  2.7359486334462222E-8  alpha =  0.12676762483337048
 delta_qm =   0.513145E-04 delta_en =   0.177740E-02 tol =   0.100000E-03
 Iteration #         27
  pAp =  2.7157951946140115E-8  rzold =  -2.1154422815503636E-8  alpha =  -0.7789402845051523
 delta_qm =   0.197684E-04 delta_en =   0.263783E-03 tol =   0.100000E-03
 Iteration #         28
  pAp =  2.3893537242448798E-8  rzold =  1.7439251644320098E-8  alpha =  0.7298731647542692
 delta_qm =   0.973722E-05 delta_en =   0.639991E-04 tol =   0.100000E-03
 Charges are converged, exit!

%%%% ELECTRONS %%%%%%%%%%%%%%%%%%%%%%%%%%%%%%%%%%%%%%%%%%%%%%%%%%%%%%%%%%%%%%%%%
 number of electrons        =         90
 total electronic charge    =     90.0000000
 number of spin components  =  1

%%%% BOUNDARY %%%%%%%%%%%%%%%%%%%%%%%%%%%%%%%%%%%%%%%%%%%%%%%%%%%%%%%%%%%%%%%%%%
 boundary mode              = electronic           
 boundary is built as a function of a smooth density
 function type              =  2 
 using the modified SCCS function with parameters 
 rhomax                     =      0.0050000 
 rhomin                     =      0.0001000 

%%%% DIELECTRIC %%%%%%%%%%%%%%%%%%%%%%%%%%%%%%%%%%%%%%%%%%%%%%%%%%%%%%%%%%%%%%%%%
 dielectric build on homogeneous background
 environment bulk permitt.  =    100.0000000 
 dielectric flags
 need gradient              =  F 
 need factor depend. sqrt   =  T 
 need gradient of logarithm =  T 

%%%% COMPUTE ELECTROSTATIC POTENTIAL %%%%%%%%%%%%%%%%%%%%%%%%%%%%%%%%%%%%%%%%%%%
 Warning: bad guess with residual norm =   0.730356E+04, reset to no guess
 Iteration #          1
  pAp =  1277.6628846579995  rzold =  1274.6139632624604  alpha =  0.9976136730336694
 delta_qm =   0.166447E+00 delta_en =   0.187006E+05 tol =   0.100000E-03
 Iteration #          2
  pAp =  3100.252082684992  rzold =  94.8517863635499  alpha =  0.030594862557564335
 delta_qm =   0.152452E-01 delta_en =   0.156880E+03 tol =   0.100000E-03
 Iteration #          3
  pAp =  1.6243316748786922  rzold =  0.23793450980628592  alpha =  0.14648148126770677
 delta_qm =   0.124593E-01 delta_en =   0.104784E+03 tol =   0.100000E-03
 Iteration #          4
  pAp =  0.004659768070066701  rzold =  0.008686993740436716  alpha =  1.8642545315162797
 delta_qm =   0.369404E-01 delta_en =   0.921099E+03 tol =   0.100000E-03
 Iteration #          5
  pAp =  -1.1355111289973474  rzold =  0.1512281002728299  alpha =  -0.13318064122045534
 delta_qm =   0.648917E-02 delta_en =   0.284238E+02 tol =   0.100000E-03
 Iteration #          6
  pAp =  0.05079257355415496  rzold =  -0.010288119640776059  alpha =  -0.20255165117410093
 delta_qm =   0.266035E-02 delta_en =   0.477729E+01 tol =   0.100000E-03
 Iteration #          7
  pAp =  0.012275979467438825  rzold =  0.005321780833984407  alpha =  0.4335117086257807
 delta_qm =   0.155183E-02 delta_en =   0.162552E+01 tol =   0.100000E-03
 Iteration #          8
  pAp =  0.0015781402553146418  rzold =  0.0008323078279312443  alpha =  0.5273978818601918
 delta_qm =   0.207275E-02 delta_en =   0.290001E+01 tol =   0.100000E-03
 Iteration #          9
  pAp =  0.0005693588995387952  rzold =  0.0003410370410393848  alpha =  0.5989842985077414
 delta_qm =   0.234052E-02 delta_en =   0.369768E+01 tol =   0.100000E-03
 Iteration #         10
  pAp =  0.00025531615112313094  rzold =  0.00047869506278810627  alpha =  1.8749110100647206
 delta_qm =   0.241436E-02 delta_en =   0.393465E+01 tol =   0.100000E-03
 Iteration #         11
  pAp =  0.0007307450402165156  rzold =  0.0016641866459430196  alpha =  2.2773834297252713
 delta_qm =   0.323931E-02 delta_en =   0.708287E+01 tol =   0.100000E-03
 Iteration #         12
  pAp =  0.03519318639148909  rzold =  0.004605412401736119  alpha =  0.13086091013486248
 delta_qm =   0.360067E-02 delta_en =   0.875128E+01 tol =   0.100000E-03
 Iteration #         13
  pAp =  0.0783865124901193  rzold =  0.011932533562868433  alpha =  0.15222687148343972
 delta_qm =   0.300133E-02 delta_en =   0.608041E+01 tol =   0.100000E-03
 Iteration #         14
  pAp =  0.003397969131459367  rzold =  0.0015677930464686306  alpha =  0.4613911974519002
 delta_qm =   0.227014E-02 delta_en =   0.347864E+01 tol =   0.100000E-03
 Iteration #         15
  pAp =  0.0016645417227368524  rzold =  0.0006281574943702626  alpha =  0.3773756378647218
 delta_qm =   0.177918E-02 delta_en =   0.213671E+01 tol =   0.100000E-03
 Iteration #         16
  pAp =  0.0003322143816260749  rzold =  0.0002793492083272969  alpha =  0.8408703047712106
 delta_qm =   0.938036E-03 delta_en =   0.593941E+00 tol =   0.100000E-03
 Iteration #         17
  pAp =  0.00028488249251090334  rzold =  0.000178068805560527  alpha =  0.6250605433526658
 delta_qm =   0.535150E-03 delta_en =   0.193310E+00 tol =   0.100000E-03
 Iteration #         18
  pAp =  0.0001084420654672225  rzold =  0.00006238424795482786  alpha =  0.575277201573443
 delta_qm =   0.271018E-03 delta_en =   0.495791E-01 tol =   0.100000E-03
 Iteration #         19
  pAp =  0.000011932209383555333  rzold =  0.0000067138720682878685  alpha =  0.5626679730864224
 delta_qm =   0.142053E-03 delta_en =   0.136209E-01 tol =   0.100000E-03
 Iteration #         20
  pAp =  0.000002064220411482429  rzold =  0.0000014879894405044253  alpha =  0.7208481382256167
 delta_qm =   0.760052E-04 delta_en =   0.389934E-02 tol =   0.100000E-03
 Iteration #         21
  pAp =  4.975911398831385E-7  rzold =  4.5185999732149454E-7  alpha =  0.908094942019297
 delta_qm =   0.302506E-04 delta_en =   0.617694E-03 tol =   0.100000E-03
 Iteration #         22
  pAp =  6.701114675069838E-7  rzold =  1.1998396616289649E-7  alpha =  0.1790507579422166
 delta_qm =   0.250983E-04 delta_en =   0.425198E-03 tol =   0.100000E-03
 Iteration #         23
  pAp =  0.0000036257200938216273  rzold =  4.3467911979285546E-7  alpha =  0.11988766604834337
 delta_qm =   0.166628E-04 delta_en =   0.187412E-03 tol =   0.100000E-03
 Iteration #         24
  pAp =  3.422468744672613E-8  rzold =  1.9632968180604687E-8  alpha =  0.5736493053783239
 delta_qm =   0.866755E-05 delta_en =   0.507103E-04 tol =   0.100000E-03
 Charges are converged, exit!

%%%% ELECTRONS %%%%%%%%%%%%%%%%%%%%%%%%%%%%%%%%%%%%%%%%%%%%%%%%%%%%%%%%%%%%%%%%%
 number of electrons        =         90
 total electronic charge    =     90.0000000
 number of spin components  =  1

%%%% BOUNDARY %%%%%%%%%%%%%%%%%%%%%%%%%%%%%%%%%%%%%%%%%%%%%%%%%%%%%%%%%%%%%%%%%%
 boundary mode              = electronic           
 boundary is built as a function of a smooth density
 function type              =  2 
 using the modified SCCS function with parameters 
 rhomax                     =      0.0050000 
 rhomin                     =      0.0001000 

%%%% DIELECTRIC %%%%%%%%%%%%%%%%%%%%%%%%%%%%%%%%%%%%%%%%%%%%%%%%%%%%%%%%%%%%%%%%%
 dielectric build on homogeneous background
 environment bulk permitt.  =    100.0000000 
 dielectric flags
 need gradient              =  F 
 need factor depend. sqrt   =  T 
 need gradient of logarithm =  T 

%%%% COMPUTE ELECTROSTATIC POTENTIAL %%%%%%%%%%%%%%%%%%%%%%%%%%%%%%%%%%%%%%%%%%%
 Warning: bad guess with residual norm =   0.193035E+04, reset to no guess
 Iteration #          1
  pAp =  1273.0213068215176  rzold =  1272.2468652519387  alpha =  0.9993916507403066
 delta_qm =   0.709274E-01 delta_en =   0.339572E+04 tol =   0.100000E-03
 Iteration #          2
  pAp =  686.0131453083711  rzold =  22.12997691240518  alpha =  0.03225882341140488
 delta_qm =   0.150489E-01 delta_en =   0.152868E+03 tol =   0.100000E-03
 Iteration #          3
  pAp =  1.1861015770388876  rzold =  0.18161033747449584  alpha =  0.153115332607421
 delta_qm =   0.150491E-01 delta_en =   0.152870E+03 tol =   0.100000E-03
 Iteration #          4
  pAp =  -0.01723134245066914  rzold =  0.016520134699770702  alpha =  -0.9587259232451258
 delta_qm =   0.806339E-02 delta_en =   0.438873E+02 tol =   0.100000E-03
 Iteration #          5
  pAp =  0.2695847959636587  rzold =  0.01464100228430246  alpha =  0.05430945106517111
 delta_qm =   0.791083E-02 delta_en =   0.422424E+02 tol =   0.100000E-03
 Iteration #          6
  pAp =  0.011291729370243116  rzold =  -0.01225932197793331  alpha =  -1.0856903823997122
 delta_qm =   0.171902E-02 delta_en =   0.199465E+01 tol =   0.100000E-03
 Iteration #          7
  pAp =  0.009996367742612505  rzold =  0.003360460930434229  alpha =  0.33616819798548025
 delta_qm =   0.100124E-02 delta_en =   0.676680E+00 tol =   0.100000E-03
 Iteration #          8
  pAp =  0.0008092138384183895  rzold =  0.0004052010014292364  alpha =  0.5007341473808737
 delta_qm =   0.962129E-03 delta_en =   0.624842E+00 tol =   0.100000E-03
 Iteration #          9
  pAp =  0.00023443033040844587  rzold =  0.0001275028679870936  alpha =  0.5438838386012018
 delta_qm =   0.106098E-02 delta_en =   0.759837E+00 tol =   0.100000E-03
 Iteration #         10
  pAp =  0.00010054674288219715  rzold =  0.00014780185271471766  alpha =  1.4699815078832108
 delta_qm =   0.121063E-02 delta_en =   0.989302E+00 tol =   0.100000E-03
 Iteration #         11
  pAp =  0.00010187060035964103  rzold =  0.0004626358820529315  alpha =  4.5414072403584065
 delta_qm =   0.320186E-02 delta_en =   0.692005E+01 tol =   0.100000E-03
 Iteration #         12
  pAp =  0.021198884504713324  rzold =  0.00521155112453971  alpha =  0.24584081881199846
 delta_qm =   0.390137E-02 delta_en =   0.102739E+02 tol =   0.100000E-03
 Iteration #         13
  pAp =  0.08822246724478607  rzold =  0.031009074390735934  alpha =  0.35148727256399154
 delta_qm =   0.119617E-01 delta_en =   0.965800E+02 tol =   0.100000E-03
 Iteration #         14
  pAp =  0.01084389450593021  rzold =  0.033890668430410886  alpha =  3.1253225869983394
 delta_qm =   0.698538E-01 delta_en =   0.329369E+04 tol =   0.100000E-03
 Iteration #         15
  pAp =  -3.533028772834906  rzold =  0.8230241568936043  alpha =  -0.2329514447269018
 delta_qm =   0.301668E-01 delta_en =   0.614275E+03 tol =   0.100000E-03
 Iteration #         16
  pAp =  0.24675182958638556  rzold =  0.09548029127815659  alpha =  0.3869486659458783
 delta_qm =   0.805525E-02 delta_en =   0.437988E+02 tol =   0.100000E-03
 Iteration #         17
  pAp =  0.03181507423780523  rzold =  0.01589049851570739  alpha =  0.4994644487368513
 delta_qm =   0.287875E-02 delta_en =   0.559386E+01 tol =   0.100000E-03
 Iteration #         18
  pAp =  0.00498161870903987  rzold =  0.0028713238713670825  alpha =  0.5763837096076118
 delta_qm =   0.152133E-02 delta_en =   0.156225E+01 tol =   0.100000E-03
 Iteration #         19
  pAp =  0.0005182939723398309  rzold =  0.0002874899985806014  alpha =  0.5546852055460568
 delta_qm =   0.888840E-03 delta_en =   0.533275E+00 tol =   0.100000E-03
 Iteration #         20
  pAp =  0.00007415916304081921  rzold =  0.000055694657228315396  alpha =  0.751015180654878
 delta_qm =   0.420186E-03 delta_en =   0.119175E+00 tol =   0.100000E-03
 Iteration #         21
  pAp =  0.000020233881488024684  rzold =  0.00001701094217219545  alpha =  0.8407157164710729
 delta_qm =   0.155620E-03 delta_en =   0.163468E-01 tol =   0.100000E-03
 Iteration #         22
  pAp =  0.00019784812065314119  rzold =  0.000010560286078498864  alpha =  0.05337572095017624
 delta_qm =   0.151051E-03 delta_en =   0.154011E-01 tol =   0.100000E-03
 Iteration #         23
  pAp =  0.000016646174895312465  rzold =  0.000006251274383910018  alpha =  0.3755381895975613
 delta_qm =   0.747901E-04 delta_en =   0.377566E-02 tol =   0.100000E-03
 Iteration #         24
  pAp =  0.0000017037393086311947  rzold =  8.461933165349179E-7  alpha =  0.49666830614758783
 delta_qm =   0.417331E-04 delta_en =   0.117562E-02 tol =   0.100000E-03
 Iteration #         25
  pAp =  1.853512264949659E-7  rzold =  1.3603915849072574E-7  alpha =  0.7339533763183409
 delta_qm =   0.190935E-04 delta_en =   0.246078E-03 tol =   0.100000E-03
 Iteration #         26
  pAp =  4.7024933543449637E-8  rzold =  3.527878571070489E-8  alpha =  0.7502144724587084
 delta_qm =   0.111297E-04 delta_en =   0.836118E-04 tol =   0.100000E-03
 Charges are converged, exit!

%%%% ELECTRONS %%%%%%%%%%%%%%%%%%%%%%%%%%%%%%%%%%%%%%%%%%%%%%%%%%%%%%%%%%%%%%%%%
 number of electrons        =         90
 total electronic charge    =     90.0000000
 number of spin components  =  1

%%%% BOUNDARY %%%%%%%%%%%%%%%%%%%%%%%%%%%%%%%%%%%%%%%%%%%%%%%%%%%%%%%%%%%%%%%%%%
 boundary mode              = electronic           
 boundary is built as a function of a smooth density
 function type              =  2 
 using the modified SCCS function with parameters 
 rhomax                     =      0.0050000 
 rhomin                     =      0.0001000 

%%%% DIELECTRIC %%%%%%%%%%%%%%%%%%%%%%%%%%%%%%%%%%%%%%%%%%%%%%%%%%%%%%%%%%%%%%%%%
 dielectric build on homogeneous background
 environment bulk permitt.  =    100.0000000 
 dielectric flags
 need gradient              =  F 
 need factor depend. sqrt   =  T 
 need gradient of logarithm =  T 

%%%% COMPUTE ELECTROSTATIC POTENTIAL %%%%%%%%%%%%%%%%%%%%%%%%%%%%%%%%%%%%%%%%%%%
 Warning: bad guess with residual norm =   0.108789E+05, reset to no guess
 Iteration #          1
  pAp =  1272.684291198434  rzold =  1270.467007550286  alpha =  0.9982577897256357
 delta_qm =   0.143291E+00 delta_en =   0.138594E+05 tol =   0.100000E-03
 Iteration #          2
  pAp =  2486.1649972758196  rzold =  72.00804949873897  alpha =  0.02896350386142544
 delta_qm =   0.176840E-01 delta_en =   0.211087E+03 tol =   0.100000E-03
 Iteration #          3
  pAp =  2.693351734181254  rzold =  0.36269888338013984  alpha =  0.13466450696993568
 delta_qm =   0.121218E-01 delta_en =   0.991824E+02 tol =   0.100000E-03
 Iteration #          4
  pAp =  0.008924981026438341  rzold =  0.008105612123352878  alpha =  0.908193765268715
 delta_qm =   0.264577E-01 delta_en =   0.472505E+03 tol =   0.100000E-03
 Iteration #          5
  pAp =  -0.2015346939897121  rzold =  0.039844805494108744  alpha =  -0.1977069292900146
 delta_qm =   0.561342E-02 delta_en =   0.212695E+02 tol =   0.100000E-03
 Iteration #          6
  pAp =  0.01406996266974363  rzold =  -0.0012630575015866161  alpha =  -0.08976978341973316
 delta_qm =   0.422808E-02 delta_en =   0.120667E+02 tol =   0.100000E-03
 Iteration #          7
  pAp =  0.0010417129282587736  rzold =  0.0012806802487413862  alpha =  1.2293984398197373
 delta_qm =   0.155778E-02 delta_en =   0.163801E+01 tol =   0.100000E-03
 Iteration #          8
  pAp =  0.0021760666263825265  rzold =  0.0009654343764746177  alpha =  0.4436603019272195
 delta_qm =   0.164184E-02 delta_en =   0.181956E+01 tol =   0.100000E-03
 Iteration #          9
  pAp =  0.0005937657413486462  rzold =  0.0002996272519302294  alpha =  0.5046219932623139
 delta_qm =   0.186727E-02 delta_en =   0.235352E+01 tol =   0.100000E-03
 Iteration #         10
  pAp =  0.0002483373050416632  rzold =  0.0002823126358928114  alpha =  1.1368112247390627
 delta_qm =   0.206816E-02 delta_en =   0.288717E+01 tol =   0.100000E-03
 Iteration #         11
  pAp =  0.00022932313298007397  rzold =  0.0007065027495971217  alpha =  3.0808176236564417
 delta_qm =   0.311435E-02 delta_en =   0.654693E+01 tol =   0.100000E-03
 Iteration #         12
  pAp =  0.0026237185326395728  rzold =  0.004445744434985494  alpha =  1.6944441180254521
 delta_qm =   0.805622E-02 delta_en =   0.438093E+02 tol =   0.100000E-03
 Iteration #         13
  pAp =  0.20455108906666825  rzold =  0.016212379816953556  alpha =  0.0792583402558641
 delta_qm =   0.855709E-02 delta_en =   0.494260E+02 tol =   0.100000E-03
 Iteration #         14
  pAp =  0.07703915395969523  rzold =  0.024842175005334564  alpha =  0.3224616799183868
 delta_qm =   0.985089E-02 delta_en =   0.655021E+02 tol =   0.100000E-03
 Iteration #         15
  pAp =  0.03304642994841476  rzold =  0.01371502117119923  alpha =  0.41502277833364387
 delta_qm =   0.946881E-02 delta_en =   0.605194E+02 tol =   0.100000E-03
 Iteration #         16
  pAp =  0.006558925111095331  rzold =  0.007962388310144519  alpha =  1.2139776221373584
 delta_qm =   0.670311E-02 delta_en =   0.303289E+02 tol =   0.100000E-03
 Iteration #         17
  pAp =  0.014282644088575975  rzold =  0.011050694552125654  alpha =  0.7737149006579666
 delta_qm =   0.518880E-02 delta_en =   0.181734E+02 tol =   0.100000E-03
 Iteration #         18
  pAp =  0.01245882721532275  rzold =  0.007448280836611104  alpha =  0.5978316183284635
 delta_qm =   0.371792E-02 delta_en =   0.933050E+01 tol =   0.100000E-03
 Iteration #         19
  pAp =  0.0034090591951700835  rzold =  0.0016598202723015747  alpha =  0.48688514257927507
 delta_qm =   0.231347E-02 delta_en =   0.361270E+01 tol =   0.100000E-03
 Iteration #         20
  pAp =  0.0004941103429601186  rzold =  0.00034946796822515723  alpha =  0.7072670572560025
 delta_qm =   0.123639E-02 delta_en =   0.103185E+01 tol =   0.100000E-03
 Iteration #         21
  pAp =  0.00011518043172868682  rzold =  0.00010559347910296858  alpha =  0.9167657866719863
 delta_qm =   0.519958E-03 delta_en =   0.182491E+00 tol =   0.100000E-03
 Iteration #         22
  pAp =  0.00007566996736465294  rzold =  0.00004125967120449973  alpha =  0.5452582132838741
 delta_qm =   0.237840E-03 delta_en =   0.381833E-01 tol =   0.100000E-03
 Iteration #         23
  pAp =  0.00007397604673770007  rzold =  0.000010205011635802368  alpha =  0.13795021612856254
 delta_qm =   0.236698E-03 delta_en =   0.378175E-01 tol =   0.100000E-03
 Iteration #         24
  pAp =  0.0002326210519203337  rzold =  0.00002991545684743113  alpha =  0.12860167470000242
 delta_qm =   0.155665E-03 delta_en =   0.163563E-01 tol =   0.100000E-03
 Iteration #         25
  pAp =  0.0000020017505899582965  rzold =  0.0000014838315822830743  alpha =  0.7412669638898359
 delta_qm =   0.865941E-04 delta_en =   0.506152E-02 tol =   0.100000E-03
 Iteration #         26
  pAp =  0.000001912454823230643  rzold =  7.767950908046499E-7  alpha =  0.40617696238828643
 delta_qm =   0.753651E-04 delta_en =   0.383393E-02 tol =   0.100000E-03
 Iteration #         27
  pAp =  0.0000023811226173256403  rzold =  7.212516426855733E-7  alpha =  0.302904032508686
 delta_qm =   0.411833E-04 delta_en =   0.114484E-02 tol =   0.100000E-03
 Iteration #         28
  pAp =  3.6819520563591946E-7  rzold =  2.2136397352880818E-7  alpha =  0.6012136229380954
 delta_qm =   0.242428E-04 delta_en =   0.396708E-03 tol =   0.100000E-03
 Iteration #         29
  pAp =  7.660105871564654E-8  rzold =  5.4426513446685566E-8  alpha =  0.710519075835807
 delta_qm =   0.269818E-04 delta_en =   0.491411E-03 tol =   0.100000E-03
 Iteration #         30
  pAp =  3.248868202777234E-8  rzold =  1.378709365317139E-8  alpha =  0.4243660497334349
 delta_qm =   0.460311E-04 delta_en =   0.143024E-02 tol =   0.100000E-03
 Iteration #         31
  pAp =  -5.558013821750579E-8  rzold =  3.89136446867501E-9  alpha =  -0.0700135802729862
 delta_qm =   0.384968E-04 delta_en =   0.100035E-02 tol =   0.100000E-03
 Iteration #         32
  pAp =  2.2048861097389146E-9  rzold =  -2.3798193756350443E-9  alpha =  -1.0793389123925516
 delta_qm =   0.246883E-04 delta_en =   0.411420E-03 tol =   0.100000E-03
 Iteration #         33
  pAp =  7.1712223535495E-9  rzold =  9.678503772359056E-9  alpha =  1.3496309687801746
 delta_qm =   0.126754E-04 delta_en =   0.108450E-03 tol =   0.100000E-03
 Iteration #         34
  pAp =  1.3310562294876511E-8  rzold =  1.0394001481191953E-8  alpha =  0.7808837260911812
 delta_qm =   0.553317E-05 delta_en =   0.206658E-04 tol =   0.100000E-03
 Charges are converged, exit!

%%%% ELECTRONS %%%%%%%%%%%%%%%%%%%%%%%%%%%%%%%%%%%%%%%%%%%%%%%%%%%%%%%%%%%%%%%%%
 number of electrons        =         90
 total electronic charge    =     90.0000000
 number of spin components  =  1

%%%% BOUNDARY %%%%%%%%%%%%%%%%%%%%%%%%%%%%%%%%%%%%%%%%%%%%%%%%%%%%%%%%%%%%%%%%%%
 boundary mode              = electronic           
 boundary is built as a function of a smooth density
 function type              =  2 
 using the modified SCCS function with parameters 
 rhomax                     =      0.0050000 
 rhomin                     =      0.0001000 

%%%% DIELECTRIC %%%%%%%%%%%%%%%%%%%%%%%%%%%%%%%%%%%%%%%%%%%%%%%%%%%%%%%%%%%%%%%%%
 dielectric build on homogeneous background
 environment bulk permitt.  =    100.0000000 
 dielectric flags
 need gradient              =  F 
 need factor depend. sqrt   =  T 
 need gradient of logarithm =  T 

%%%% COMPUTE ELECTROSTATIC POTENTIAL %%%%%%%%%%%%%%%%%%%%%%%%%%%%%%%%%%%%%%%%%%%
 Warning: bad guess with residual norm =   0.532544E+04, reset to no guess
 Iteration #          1
  pAp =  1271.224788457412  rzold =  1269.8746163730061  alpha =  0.9989378966673201
 delta_qm =   0.104702E+00 delta_en =   0.739970E+04 tol =   0.100000E-03
 Iteration #          2
  pAp =  1471.2250978972786  rzold =  42.863215184329036  alpha =  0.0291343692039991
 delta_qm =   0.157387E-01 delta_en =   0.167202E+03 tol =   0.100000E-03
 Iteration #          3
  pAp =  2.80697216179214  rzold =  0.368559436955515  alpha =  0.13130142221296717
 delta_qm =   0.111222E-01 delta_en =   0.834996E+02 tol =   0.100000E-03
 Iteration #          4
  pAp =  0.0019428984480467665  rzold =  0.008778911749103365  alpha =  4.518461455321545
 delta_qm =   0.571267E-01 delta_en =   0.220284E+04 tol =   0.100000E-03
 Iteration #          5
  pAp =  -8.365979676813472  rzold =  0.6547410924756198  alpha =  -0.07826233361410757
 delta_qm =   0.760677E-02 delta_en =   0.390574E+02 tol =   0.100000E-03
 Iteration #          6
  pAp =  0.34529803670839626  rzold =  -0.05932485201682  alpha =  -0.17180767253223556
 delta_qm =   0.210462E-02 delta_en =   0.298987E+01 tol =   0.100000E-03
 Iteration #          7
  pAp =  0.014645288200068147  rzold =  0.004509703859045807  alpha =  0.3079286523719501
 delta_qm =   0.113826E-02 delta_en =   0.874556E+00 tol =   0.100000E-03
 Iteration #          8
  pAp =  0.0015757014198454558  rzold =  0.0006763596446144585  alpha =  0.4292435331312931
 delta_qm =   0.132322E-02 delta_en =   0.118187E+01 tol =   0.100000E-03
 Iteration #          9
  pAp =  0.00043199586379368373  rzold =  0.00021607893585710045  alpha =  0.5001875109625986
 delta_qm =   0.152396E-02 delta_en =   0.156766E+01 tol =   0.100000E-03
 Iteration #         10
  pAp =  0.00014662792829848211  rzold =  0.00021996763036714458  alpha =  1.5001755321767147
 delta_qm =   0.187537E-02 delta_en =   0.237398E+01 tol =   0.100000E-03
 Iteration #         11
  pAp =  0.00005109804455455266  rzold =  0.0007755273756095343  alpha =  15.177241758861738
 delta_qm =   0.169939E-01 delta_en =   0.194934E+03 tol =   0.100000E-03
 Iteration #         12
  pAp =  -0.32869508409515874  rzold =  0.11922842215815216  alpha =  -0.36273259907846683
 delta_qm =   0.350464E-01 delta_en =   0.829071E+03 tol =   0.100000E-03
 Iteration #         13
  pAp =  148.94127701766124  rzold =  1.9738895941738999  alpha =  0.013252804284334415
 delta_qm =   0.450501E-02 delta_en =   0.136992E+02 tol =   0.100000E-03
 Iteration #         14
  pAp =  0.011150311961245515  rzold =  0.0034799777947461187  alpha =  0.3120968997855193
 delta_qm =   0.240985E-02 delta_en =   0.391999E+01 tol =   0.100000E-03
 Iteration #         15
  pAp =  0.0023031425147277047  rzold =  0.0007620827308620036  alpha =  0.330888221631436
 delta_qm =   0.163997E-02 delta_en =   0.181541E+01 tol =   0.100000E-03
 Iteration #         16
  pAp =  0.0003925761491610334  rzold =  0.00029685620304217505  alpha =  0.756174830479591
 delta_qm =   0.729064E-03 delta_en =   0.358785E+00 tol =   0.100000E-03
 Iteration #         17
  pAp =  0.00029263942465270143  rzold =  0.00018074737754558487  alpha =  0.617645342079565
 delta_qm =   0.469952E-03 delta_en =   0.149077E+00 tol =   0.100000E-03
 Iteration #         18
  pAp =  0.00013167081043975693  rzold =  0.00007388186679565854  alpha =  0.5611104431491409
 delta_qm =   0.290196E-03 delta_en =   0.568443E-01 tol =   0.100000E-03
 Iteration #         19
  pAp =  0.00001787236625688811  rzold =  0.000009049915916445807  alpha =  0.5063636110835587
 delta_qm =   0.173373E-03 delta_en =   0.202892E-01 tol =   0.100000E-03
 Iteration #         20
  pAp =  0.000003012964612938373  rzold =  0.00000205413895167449  alpha =  0.6817667034168069
 delta_qm =   0.868319E-04 delta_en =   0.508935E-02 tol =   0.100000E-03
 Iteration #         21
  pAp =  7.568399810210477E-7  rzold =  6.219691656389129E-7  alpha =  0.821797448913598
 delta_qm =   0.402662E-04 delta_en =   0.109442E-02 tol =   0.100000E-03
 Iteration #         22
  pAp =  0.00006748815472394342  rzold =  0.000002421574967935428  alpha =  0.03588148139241245
 delta_qm =   0.325130E-04 delta_en =   0.713541E-03 tol =   0.100000E-03
 Iteration #         23
  pAp =  3.162677597132585E-7  rzold =  1.8816802196471808E-7  alpha =  0.5949642863860642
 delta_qm =   0.157488E-04 delta_en =   0.167418E-03 tol =   0.100000E-03
 Iteration #         24
  pAp =  9.399542571471942E-8  rzold =  4.390735817275101E-8  alpha =  0.4671222864186171
 delta_qm =   0.969665E-05 delta_en =   0.634669E-04 tol =   0.100000E-03
 Charges are converged, exit!

%%%% ELECTRONS %%%%%%%%%%%%%%%%%%%%%%%%%%%%%%%%%%%%%%%%%%%%%%%%%%%%%%%%%%%%%%%%%
 number of electrons        =         90
 total electronic charge    =     90.0000000
 number of spin components  =  1

%%%% BOUNDARY %%%%%%%%%%%%%%%%%%%%%%%%%%%%%%%%%%%%%%%%%%%%%%%%%%%%%%%%%%%%%%%%%%
 boundary mode              = electronic           
 boundary is built as a function of a smooth density
 function type              =  2 
 using the modified SCCS function with parameters 
 rhomax                     =      0.0050000 
 rhomin                     =      0.0001000 

%%%% DIELECTRIC %%%%%%%%%%%%%%%%%%%%%%%%%%%%%%%%%%%%%%%%%%%%%%%%%%%%%%%%%%%%%%%%%
 dielectric build on homogeneous background
 environment bulk permitt.  =    100.0000000 
 dielectric flags
 need gradient              =  F 
 need factor depend. sqrt   =  T 
 need gradient of logarithm =  T 

%%%% COMPUTE ELECTROSTATIC POTENTIAL %%%%%%%%%%%%%%%%%%%%%%%%%%%%%%%%%%%%%%%%%%%
 Warning: bad guess with residual norm =   0.815572E+02, reset to no guess
 Iteration #          1
  pAp =  1271.0476577668094  rzold =  1269.6687065574456  alpha =  0.9989151066044317
 delta_qm =   0.701881E-01 delta_en =   0.332530E+04 tol =   0.100000E-03
 Iteration #          2
  pAp =  1323.2126431129816  rzold =  40.99956832584093  alpha =  0.030984867427948398
 delta_qm =   0.110950E-01 delta_en =   0.830923E+02 tol =   0.100000E-03
 Iteration #          3
  pAp =  2.852839231105651  rzold =  0.3833170879156116  alpha =  0.13436336816184788
 delta_qm =   0.518535E-02 delta_en =   0.181493E+02 tol =   0.100000E-03
 Iteration #          4
  pAp =  0.01616400131972684  rzold =  0.006187369913360797  alpha =  0.38278702104593487
 delta_qm =   0.342479E-02 delta_en =   0.791722E+01 tol =   0.100000E-03
 Iteration #          5
  pAp =  0.01982331095060562  rzold =  -0.005744670288386123  alpha =  -0.28979368293724
 delta_qm =   0.727372E-02 delta_en =   0.357122E+02 tol =   0.100000E-03
 Iteration #          6
  pAp =  -0.015067131753844536  rzold =  0.009265984873410323  alpha =  -0.6149800124397273
 delta_qm =   0.168879E-02 delta_en =   0.192510E+01 tol =   0.100000E-03
 Iteration #          7
  pAp =  0.014134320731312924  rzold =  0.004033475598889033  alpha =  0.28536748780246246
 delta_qm =   0.859808E-03 delta_en =   0.499007E+00 tol =   0.100000E-03
 Iteration #          8
  pAp =  0.0009796942043476817  rzold =  0.0004714676325649722  alpha =  0.4812395852427172
 delta_qm =   0.934799E-03 delta_en =   0.589849E+00 tol =   0.100000E-03
 Iteration #          9
  pAp =  0.00033032715057384804  rzold =  0.00020249987855462534  alpha =  0.6130282606284112
 delta_qm =   0.105656E-02 delta_en =   0.753522E+00 tol =   0.100000E-03
 Iteration #         10
  pAp =  0.0002149187131544684  rzold =  0.00027520323669407126  alpha =  1.2804991834111468
 delta_qm =   0.126782E-02 delta_en =   0.108498E+01 tol =   0.100000E-03
 Iteration #         11
  pAp =  0.0003236788545307047  rzold =  0.0008005396968136709  alpha =  2.4732529963205563
 delta_qm =   0.201192E-02 delta_en =   0.273227E+01 tol =   0.100000E-03
 Iteration #         12
  pAp =  0.004866429668209547  rzold =  0.003977476401396078  alpha =  0.8173294740863825
 delta_qm =   0.300419E-02 delta_en =   0.609197E+01 tol =   0.100000E-03
 Iteration #         13
  pAp =  0.2736647178444613  rzold =  0.012740401830302742  alpha =  0.0465547840096209
 delta_qm =   0.284302E-02 delta_en =   0.545586E+01 tol =   0.100000E-03
 Iteration #         14
  pAp =  0.008349559595113932  rzold =  0.004559301593467611  alpha =  0.5460529434553246
 delta_qm =   0.305697E-02 delta_en =   0.630792E+01 tol =   0.100000E-03
 Iteration #         15
  pAp =  0.003453136260661687  rzold =  0.0016632365903096996  alpha =  0.4816597043265798
 delta_qm =   0.249683E-02 delta_en =   0.420807E+01 tol =   0.100000E-03
 Iteration #         16
  pAp =  0.0026634750768676635  rzold =  0.0016544997157242416  alpha =  0.6211808513222467
 delta_qm =   0.140736E-02 delta_en =   0.133694E+01 tol =   0.100000E-03
 Iteration #         17
  pAp =  0.0015746818527436486  rzold =  0.0010675302979303342  alpha =  0.6779339560371015
 delta_qm =   0.777006E-03 delta_en =   0.407524E+00 tol =   0.100000E-03
 Iteration #         18
  pAp =  0.0006638252330974084  rzold =  0.00039316571168539216  alpha =  0.5922729237797741
 delta_qm =   0.367896E-03 delta_en =   0.913597E-01 tol =   0.100000E-03
 Iteration #         19
  pAp =  0.00009858455023461185  rzold =  0.0000513842753586513  alpha =  0.5212203660347066
 delta_qm =   0.210388E-03 delta_en =   0.298777E-01 tol =   0.100000E-03
 Iteration #         20
  pAp =  0.00001378535063631604  rzold =  0.000007889340915026112  alpha =  0.5722988934530604
 delta_qm =   0.126523E-03 delta_en =   0.108054E-01 tol =   0.100000E-03
 Iteration #         21
  pAp =  0.00000218208497989908  rzold =  0.0000018110896447250376  alpha =  0.8299812616870675
 delta_qm =   0.444584E-04 delta_en =   0.133417E-02 tol =   0.100000E-03
 Iteration #         22
  pAp =  0.000001521952636576618  rzold =  6.430312783884025E-7  alpha =  0.4225041324773388
 delta_qm =   0.293402E-04 delta_en =   0.581073E-03 tol =   0.100000E-03
 Iteration #         23
  pAp =  0.00005129236649845008  rzold =  0.0000022888784188669747  alpha =  0.044624153165873884
 delta_qm =   0.172225E-04 delta_en =   0.200215E-03 tol =   0.100000E-03
 Iteration #         24
  pAp =  3.273428538946292E-7  rzold =  1.5850746922272367E-7  alpha =  0.48422462056784904
 delta_qm =   0.856567E-05 delta_en =   0.495253E-04 tol =   0.100000E-03
 Charges are converged, exit!

%%%% ELECTRONS %%%%%%%%%%%%%%%%%%%%%%%%%%%%%%%%%%%%%%%%%%%%%%%%%%%%%%%%%%%%%%%%%
 number of electrons        =         90
 total electronic charge    =     90.0000000
 number of spin components  =  1

%%%% BOUNDARY %%%%%%%%%%%%%%%%%%%%%%%%%%%%%%%%%%%%%%%%%%%%%%%%%%%%%%%%%%%%%%%%%%
 boundary mode              = electronic           
 boundary is built as a function of a smooth density
 function type              =  2 
 using the modified SCCS function with parameters 
 rhomax                     =      0.0050000 
 rhomin                     =      0.0001000 

%%%% DIELECTRIC %%%%%%%%%%%%%%%%%%%%%%%%%%%%%%%%%%%%%%%%%%%%%%%%%%%%%%%%%%%%%%%%%
 dielectric build on homogeneous background
 environment bulk permitt.  =    100.0000000 
 dielectric flags
 need gradient              =  F 
 need factor depend. sqrt   =  T 
 need gradient of logarithm =  T 

%%%% COMPUTE ELECTROSTATIC POTENTIAL %%%%%%%%%%%%%%%%%%%%%%%%%%%%%%%%%%%%%%%%%%%
 Warning: bad guess with residual norm =   0.125229E+03, reset to no guess
 Iteration #          1
  pAp =  1270.5836894702943  rzold =  1269.5859496021314  alpha =  0.999214738960974
 delta_qm =   0.655550E-01 delta_en =   0.290078E+04 tol =   0.100000E-03
 Iteration #          2
  pAp =  961.5828487300261  rzold =  29.53625567722544  alpha =  0.0307162879581664
 delta_qm =   0.119717E-01 delta_en =   0.967421E+02 tol =   0.100000E-03
 Iteration #          3
  pAp =  2.6293976863675703  rzold =  0.3528953239332908  alpha =  0.13421146818639082
 delta_qm =   0.752745E-02 delta_en =   0.382471E+02 tol =   0.100000E-03
 Iteration #          4
  pAp =  0.008148616913425893  rzold =  0.009120401352044753  alpha =  1.119257592907297
 delta_qm =   0.934312E-02 delta_en =   0.589234E+02 tol =   0.100000E-03
 Iteration #          5
  pAp =  0.1937141614733304  rzold =  0.004594113241593936  alpha =  0.02371593902403687
 delta_qm =   0.863499E-02 delta_en =   0.503301E+02 tol =   0.100000E-03
 Iteration #          6
  pAp =  -0.0018565538176872607  rzold =  -0.0047503497708184855  alpha =  2.558692199257694
 delta_qm =   0.163260E-02 delta_en =   0.179914E+01 tol =   0.100000E-03
 Iteration #          7
  pAp =  0.015791533008675574  rzold =  0.004442980184142725  alpha =  0.2813520499689191
 delta_qm =   0.843080E-03 delta_en =   0.479779E+00 tol =   0.100000E-03
 Iteration #          8
  pAp =  0.0011707697751528806  rzold =  0.0005107303603236672  alpha =  0.43623466471619105
 delta_qm =   0.866642E-03 delta_en =   0.506972E+00 tol =   0.100000E-03
 Iteration #          9
  pAp =  0.0003161070519190585  rzold =  0.00016499994041113084  alpha =  0.5219748797422598
 delta_qm =   0.945830E-03 delta_en =   0.603851E+00 tol =   0.100000E-03
 Iteration #         10
  pAp =  0.00014786741519160734  rzold =  0.0001672476270332057  alpha =  1.1310647908228149
 delta_qm =   0.107889E-02 delta_en =   0.785700E+00 tol =   0.100000E-03
 Iteration #         11
  pAp =  0.00014418291409750076  rzold =  0.00040464593423415485  alpha =  2.8064763204919085
 delta_qm =   0.165727E-02 delta_en =   0.185391E+01 tol =   0.100000E-03
 Iteration #         12
  pAp =  0.0024625693775953716  rzold =  0.0021988728781146888  alpha =  0.8929181440004038
 delta_qm =   0.271326E-02 delta_en =   0.496920E+01 tol =   0.100000E-03
 Iteration #         13
  pAp =  0.22948039319291266  rzold =  0.010520353049660638  alpha =  0.04584423489642841
 delta_qm =   0.254204E-02 delta_en =   0.436184E+01 tol =   0.100000E-03
 Iteration #         14
  pAp =  0.0053958069632341465  rzold =  0.003134229247299185  alpha =  0.5808638575573849
 delta_qm =   0.291774E-02 delta_en =   0.574642E+01 tol =   0.100000E-03
 Iteration #         15
  pAp =  0.0028549269986098058  rzold =  0.00137709220032379  alpha =  0.4823563618244386
 delta_qm =   0.246675E-02 delta_en =   0.410729E+01 tol =   0.100000E-03
 Iteration #         16
  pAp =  0.002063670417990363  rzold =  0.00129243779308731  alpha =  0.6262811066245296
 delta_qm =   0.151866E-02 delta_en =   0.155677E+01 tol =   0.100000E-03
 Iteration #         17
  pAp =  0.0014430967895279036  rzold =  0.0009987655339267468  alpha =  0.6920987844851932
 delta_qm =   0.868283E-03 delta_en =   0.508893E+00 tol =   0.100000E-03
 Iteration #         18
  pAp =  0.0006795001497290601  rzold =  0.000428176455594478  alpha =  0.6301344536350825
 delta_qm =   0.451259E-03 delta_en =   0.137454E+00 tol =   0.100000E-03
 Iteration #         19
  pAp =  0.00011691560450914042  rzold =  0.00006101261418936661  alpha =  0.5218517617517571
 delta_qm =   0.267679E-03 delta_en =   0.483650E-01 tol =   0.100000E-03
 Iteration #         20
  pAp =  0.000016215527938995197  rzold =  0.000009697794142958854  alpha =  0.5980560225632581
 delta_qm =   0.160089E-03 delta_en =   0.172991E-01 tol =   0.100000E-03
 Iteration #         21
  pAp =  0.000002627820966138193  rzold =  0.0000023006179276870195  alpha =  0.8754850339245043
 delta_qm =   0.526987E-04 delta_en =   0.187458E-02 tol =   0.100000E-03
 Iteration #         22
  pAp =  0.0000016212084666584976  rzold =  7.843897783150861E-7  alpha =  0.4838302997095779
 delta_qm =   0.350320E-04 delta_en =   0.828387E-03 tol =   0.100000E-03
 Iteration #         23
  pAp =  0.00006255374830383656  rzold =  0.0000025717337530402678  alpha =  0.041112384513695685
 delta_qm =   0.227120E-04 delta_en =   0.348187E-03 tol =   0.100000E-03
 Iteration #         24
  pAp =  4.348397171509119E-7  rzold =  1.921355537308998E-7  alpha =  0.44185373633710373
 delta_qm =   0.116030E-04 delta_en =   0.908745E-04 tol =   0.100000E-03
 Charges are converged, exit!

%%%% ELECTRONS %%%%%%%%%%%%%%%%%%%%%%%%%%%%%%%%%%%%%%%%%%%%%%%%%%%%%%%%%%%%%%%%%
 number of electrons        =         90
 total electronic charge    =     90.0000000
 number of spin components  =  1

%%%% BOUNDARY %%%%%%%%%%%%%%%%%%%%%%%%%%%%%%%%%%%%%%%%%%%%%%%%%%%%%%%%%%%%%%%%%%
 boundary mode              = electronic           
 boundary is built as a function of a smooth density
 function type              =  2 
 using the modified SCCS function with parameters 
 rhomax                     =      0.0050000 
 rhomin                     =      0.0001000 

%%%% DIELECTRIC %%%%%%%%%%%%%%%%%%%%%%%%%%%%%%%%%%%%%%%%%%%%%%%%%%%%%%%%%%%%%%%%%
 dielectric build on homogeneous background
 environment bulk permitt.  =    100.0000000 
 dielectric flags
 need gradient              =  F 
 need factor depend. sqrt   =  T 
 need gradient of logarithm =  T 

%%%% COMPUTE ELECTROSTATIC POTENTIAL %%%%%%%%%%%%%%%%%%%%%%%%%%%%%%%%%%%%%%%%%%%
 Warning: bad guess with residual norm =   0.177710E+01, reset to no guess
 Iteration #          1
  pAp =  1270.7412537372297  rzold =  1269.877150363501  alpha =  0.9993200005341862
 delta_qm =   0.614407E-01 delta_en =   0.254809E+04 tol =   0.100000E-03
 Iteration #          2
  pAp =  810.8695797864135  rzold =  25.070960960308465  alpha =  0.030918610816442593
 delta_qm =   0.123692E-01 delta_en =   0.103273E+03 tol =   0.100000E-03
 Iteration #          3
  pAp =  2.710075818373661  rzold =  0.36570066608704294  alpha =  0.13494111995232036
 delta_qm =   0.791954E-02 delta_en =   0.423354E+02 tol =   0.100000E-03
 Iteration #          4
  pAp =  0.006914502347020642  rzold =  0.009887123059100913  alpha =  1.4299110135324677
 delta_qm =   0.116381E-01 delta_en =   0.914262E+02 tol =   0.100000E-03
 Iteration #          5
  pAp =  0.32106949151338265  rzold =  0.013688947847486201  alpha =  0.04263546742782201
 delta_qm =   0.102027E-01 delta_en =   0.702637E+02 tol =   0.100000E-03
 Iteration #          6
  pAp =  -0.013706050628820889  rzold =  -0.015059612974753459  alpha =  1.098756555231623
 delta_qm =   0.160734E-02 delta_en =   0.174390E+01 tol =   0.100000E-03
 Iteration #          7
  pAp =  0.014579859258775673  rzold =  0.004278728268481414  alpha =  0.2934684205477519
 delta_qm =   0.828570E-03 delta_en =   0.463406E+00 tol =   0.100000E-03
 Iteration #          8
  pAp =  0.0012133791142885596  rzold =  0.0005077362569528885  alpha =  0.4184481593377264
 delta_qm =   0.831719E-03 delta_en =   0.466936E+00 tol =   0.100000E-03
 Iteration #          9
  pAp =  0.0003048505035063843  rzold =  0.00015468042167028647  alpha =  0.5073976256924473
 delta_qm =   0.895384E-03 delta_en =   0.541156E+00 tol =   0.100000E-03
 Iteration #         10
  pAp =  0.00012587717917595593  rzold =  0.00014114729892361665  alpha =  1.1213096754123761
 delta_qm =   0.100777E-02 delta_en =   0.685528E+00 tol =   0.100000E-03
 Iteration #         11
  pAp =  0.00013084435602140292  rzold =  0.00034259210859608933  alpha =  2.618317816781105
 delta_qm =   0.155173E-02 delta_en =   0.162532E+01 tol =   0.100000E-03
 Iteration #         12
  pAp =  0.00210554784135956  rzold =  0.0018461109466148247  alpha =  0.8767841368177054
 delta_qm =   0.285066E-02 delta_en =   0.548523E+01 tol =   0.100000E-03
 Iteration #         13
  pAp =  0.3006237522230065  rzold =  0.014667535110803008  alpha =  0.04879034009236384
 delta_qm =   0.277122E-02 delta_en =   0.518376E+01 tol =   0.100000E-03
 Iteration #         14
  pAp =  0.003821130847608532  rzold =  0.0029485364160238003  alpha =  0.7716397405938487
 delta_qm =   0.354860E-02 delta_en =   0.849997E+01 tol =   0.100000E-03
 Iteration #         15
  pAp =  0.0019524523402697966  rzold =  0.0015771329623328007  alpha =  0.8077702742361778
 delta_qm =   0.281039E-02 delta_en =   0.533134E+01 tol =   0.100000E-03
 Iteration #         16
  pAp =  0.0030974768183842944  rzold =  0.0019782685103879906  alpha =  0.6386709655570223
 delta_qm =   0.185349E-02 delta_en =   0.231892E+01 tol =   0.100000E-03
 Iteration #         17
  pAp =  0.004712830258210224  rzold =  0.0023199238019139213  alpha =  0.49225702493154316
 delta_qm =   0.119976E-02 delta_en =   0.971618E+00 tol =   0.100000E-03
 Iteration #         18
  pAp =  0.0014825542029891076  rzold =  0.0009133710834775172  alpha =  0.6160793862618915
 delta_qm =   0.668430E-03 delta_en =   0.301589E+00 tol =   0.100000E-03
 Iteration #         19
  pAp =  0.00023479888372705666  rzold =  0.0001248630360485381  alpha =  0.5317871791660044
 delta_qm =   0.400458E-03 delta_en =   0.108248E+00 tol =   0.100000E-03
 Iteration #         20
  pAp =  0.00003239864411548112  rzold =  0.000020180347264274204  alpha =  0.6228762905121508
 delta_qm =   0.233445E-03 delta_en =   0.367853E-01 tol =   0.100000E-03
 Iteration #         21
  pAp =  0.000005702209678044664  rzold =  0.000005053680179567694  alpha =  0.8862669850647519
 delta_qm =   0.729416E-04 delta_en =   0.359132E-02 tol =   0.100000E-03
 Iteration #         22
  pAp =  0.000002721323492334449  rzold =  0.000001528505897439371  alpha =  0.5616773976871686
 delta_qm =   0.436522E-04 delta_en =   0.128622E-02 tol =   0.100000E-03
 Iteration #         23
  pAp =  0.00009494969993147034  rzold =  0.0000036175822502164356  alpha =  0.03809998612768039
 delta_qm =   0.313219E-04 delta_en =   0.662218E-03 tol =   0.100000E-03
 Iteration #         24
  pAp =  8.041657513157397E-7  rzold =  3.3500775590089105E-7  alpha =  0.4165904297127383
 delta_qm =   0.166290E-04 delta_en =   0.186654E-03 tol =   0.100000E-03
 Iteration #         25
  pAp =  7.935884647712617E-8  rzold =  4.440556865777179E-8  alpha =  0.5595541093275711
 delta_qm =   0.797065E-05 delta_en =   0.428836E-04 tol =   0.100000E-03
 Charges are converged, exit!

%%%% ELECTRONS %%%%%%%%%%%%%%%%%%%%%%%%%%%%%%%%%%%%%%%%%%%%%%%%%%%%%%%%%%%%%%%%%
 number of electrons        =         90
 total electronic charge    =     90.0000000
 number of spin components  =  1

%%%% BOUNDARY %%%%%%%%%%%%%%%%%%%%%%%%%%%%%%%%%%%%%%%%%%%%%%%%%%%%%%%%%%%%%%%%%%
 boundary mode              = electronic           
 boundary is built as a function of a smooth density
 function type              =  2 
 using the modified SCCS function with parameters 
 rhomax                     =      0.0050000 
 rhomin                     =      0.0001000 

%%%% DIELECTRIC %%%%%%%%%%%%%%%%%%%%%%%%%%%%%%%%%%%%%%%%%%%%%%%%%%%%%%%%%%%%%%%%%
 dielectric build on homogeneous background
 environment bulk permitt.  =    100.0000000 
 dielectric flags
 need gradient              =  F 
 need factor depend. sqrt   =  T 
 need gradient of logarithm =  T 

%%%% COMPUTE ELECTROSTATIC POTENTIAL %%%%%%%%%%%%%%%%%%%%%%%%%%%%%%%%%%%%%%%%%%%
 Warning: bad guess with residual norm =   0.136732E+03, reset to no guess
 Iteration #          1
  pAp =  1270.585256861537  rzold =  1269.996276332009  alpha =  0.9995364494225419
 delta_qm =   0.509703E-01 delta_en =   0.175363E+04 tol =   0.100000E-03
 Iteration #          2
  pAp =  528.0986212064541  rzold =  16.424586137856853  alpha =  0.031101361522843
 delta_qm =   0.127439E-01 delta_en =   0.109625E+03 tol =   0.100000E-03
 Iteration #          3
  pAp =  2.5856592771950355  rzold =  0.35041562423514405  alpha =  0.13552273778905646
 delta_qm =   0.946498E-02 delta_en =   0.604705E+02 tol =   0.100000E-03
 Iteration #          4
  pAp =  -0.0007400859906201725  rzold =  0.01171853887509318  alpha =  -15.83402337513963
 delta_qm =   0.116531E+00 delta_en =   0.916622E+04 tol =   0.100000E-03
 Iteration #          5
  pAp =  203.93743978983457  rzold =  5.412549098068981  alpha =  0.026540242456935922
 delta_qm =   0.144629E-01 delta_en =   0.141193E+03 tol =   0.100000E-03
 Iteration #          6
  pAp =  1.7517412634094327  rzold =  -0.26603450838970605  alpha =  -0.15186860865052654
 delta_qm =   0.145954E-02 delta_en =   0.143793E+01 tol =   0.100000E-03
 Iteration #          7
  pAp =  0.012231200759517528  rzold =  0.0038331587769365443  alpha =  0.3133918617069406
 delta_qm =   0.765924E-03 delta_en =   0.395981E+00 tol =   0.100000E-03
 Iteration #          8
  pAp =  0.0011933708940665355  rzold =  0.000484120691150632  alpha =  0.4056749612024979
 delta_qm =   0.675129E-03 delta_en =   0.307664E+00 tol =   0.100000E-03
 Iteration #          9
  pAp =  0.0002705363614258752  rzold =  0.0001225895475112736  alpha =  0.45313519729902246
 delta_qm =   0.696081E-03 delta_en =   0.327056E+00 tol =   0.100000E-03
 Iteration #         10
  pAp =  0.0000902962825244874  rzold =  0.00008653122145980294  alpha =  0.9583032550242209
 delta_qm =   0.746173E-03 delta_en =   0.375823E+00 tol =   0.100000E-03
 Iteration #         11
  pAp =  0.00006801679533924998  rzold =  0.0001661413802989925  alpha =  2.4426522812538107
 delta_qm =   0.108753E-02 delta_en =   0.798332E+00 tol =   0.100000E-03
 Iteration #         12
  pAp =  0.0007219035301079045  rzold =  0.00080582396919976  alpha =  1.116248827705984
 delta_qm =   0.165172E-02 delta_en =   0.184152E+01 tol =   0.100000E-03
 Iteration #         13
  pAp =  0.006522781917913974  rzold =  0.0012329679190976736  alpha =  0.1890248569726802
 delta_qm =   0.204043E-02 delta_en =   0.281027E+01 tol =   0.100000E-03
 Iteration #         14
  pAp =  0.034078220063699136  rzold =  0.005082203560078515  alpha =  0.1491334802867885
 delta_qm =   0.209934E-02 delta_en =   0.297487E+01 tol =   0.100000E-03
 Iteration #         15
  pAp =  0.0006472132989566759  rzold =  0.0005665612386979821  alpha =  0.8753856566471873
 delta_qm =   0.156321E-02 delta_en =   0.164944E+01 tol =   0.100000E-03
 Iteration #         16
  pAp =  0.0009056705743778225  rzold =  0.0006573103663990294  alpha =  0.7257720246134622
 delta_qm =   0.979647E-03 delta_en =   0.647803E+00 tol =   0.100000E-03
 Iteration #         17
  pAp =  0.0018001814722391997  rzold =  0.0007509260386513108  alpha =  0.4171390774938113
 delta_qm =   0.667774E-03 delta_en =   0.300997E+00 tol =   0.100000E-03
 Iteration #         18
  pAp =  0.0006057314875963141  rzold =  0.0003214037295110208  alpha =  0.5306042959503837
 delta_qm =   0.367586E-03 delta_en =   0.912055E-01 tol =   0.100000E-03
 Iteration #         19
  pAp =  0.00008059265226502997  rzold =  0.00004198476373539353  alpha =  0.5209502672442904
 delta_qm =   0.225617E-03 delta_en =   0.343597E-01 tol =   0.100000E-03
 Iteration #         20
  pAp =  0.00001090242881374528  rzold =  0.000006770151714417403  alpha =  0.6209764658937198
 delta_qm =   0.131365E-03 delta_en =   0.116482E-01 tol =   0.100000E-03
 Iteration #         21
  pAp =  0.0000018109966098047944  rzold =  0.000001611254244508979  alpha =  0.8897058314662747
 delta_qm =   0.428180E-04 delta_en =   0.123753E-02 tol =   0.100000E-03
 Iteration #         22
  pAp =  6.881045133104678E-7  rzold =  4.66201291537855E-7  alpha =  0.677515235723368
 delta_qm =   0.191108E-04 delta_en =   0.246524E-03 tol =   0.100000E-03
 Iteration #         23
  pAp =  0.000004922834739439097  rzold =  2.3225864627647177E-7  alpha =  0.047179858469702574
 delta_qm =   0.164401E-04 delta_en =   0.182438E-03 tol =   0.100000E-03
 Iteration #         24
  pAp =  3.350976774199615E-7  rzold =  1.1311847615191405E-7  alpha =  0.33756866661343105
 delta_qm =   0.845976E-05 delta_en =   0.483081E-04 tol =   0.100000E-03
 Charges are converged, exit!

%%%% ELECTRONS %%%%%%%%%%%%%%%%%%%%%%%%%%%%%%%%%%%%%%%%%%%%%%%%%%%%%%%%%%%%%%%%%
 number of electrons        =         90
 total electronic charge    =     90.0000000
 number of spin components  =  1

%%%% BOUNDARY %%%%%%%%%%%%%%%%%%%%%%%%%%%%%%%%%%%%%%%%%%%%%%%%%%%%%%%%%%%%%%%%%%
 boundary mode              = electronic           
 boundary is built as a function of a smooth density
 function type              =  2 
 using the modified SCCS function with parameters 
 rhomax                     =      0.0050000 
 rhomin                     =      0.0001000 

%%%% DIELECTRIC %%%%%%%%%%%%%%%%%%%%%%%%%%%%%%%%%%%%%%%%%%%%%%%%%%%%%%%%%%%%%%%%%
 dielectric build on homogeneous background
 environment bulk permitt.  =    100.0000000 
 dielectric flags
 need gradient              =  F 
 need factor depend. sqrt   =  T 
 need gradient of logarithm =  T 

%%%% COMPUTE ELECTROSTATIC POTENTIAL %%%%%%%%%%%%%%%%%%%%%%%%%%%%%%%%%%%%%%%%%%%
 Warning: bad guess with residual norm =   0.316375E+02, reset to no guess
 Iteration #          1
  pAp =  1270.7258251140697  rzold =  1270.3758333079086  alpha =  0.9997245733113752
 delta_qm =   0.287847E-01 delta_en =   0.559277E+03 tol =   0.100000E-03
 Iteration #          2
  pAp =  262.5907811907345  rzold =  8.65333680643582  alpha =  0.03295369611681232
 delta_qm =   0.104968E-01 delta_en =   0.743740E+02 tol =   0.100000E-03
 Iteration #          3
  pAp =  2.2350195971563793  rzold =  0.31084655488830787  alpha =  0.13908001311657342
 delta_qm =   0.762012E-02 delta_en =   0.391947E+02 tol =   0.100000E-03
 Iteration #          4
  pAp =  -0.0007065260444741417  rzold =  0.014744305823318371  alpha =  -20.868736458671343
 delta_qm =   0.957769E-01 delta_en =   0.619192E+04 tol =   0.100000E-03
 Iteration #          5
  pAp =  173.8034432634957  rzold =  -4.697712402876426  alpha =  -0.027028879950061934
 delta_qm =   0.683305E-01 delta_en =   0.315162E+04 tol =   0.100000E-03
 Iteration #          6
  pAp =  15.167757888371796  rzold =  1.6451660545351228  alpha =  0.10846468322100343
 delta_qm =   0.995117E-03 delta_en =   0.668424E+00 tol =   0.100000E-03
 Iteration #          7
  pAp =  0.008197845332493613  rzold =  0.0026731267486361544  alpha =  0.3260767482451447
 delta_qm =   0.530282E-03 delta_en =   0.189809E+00 tol =   0.100000E-03
 Iteration #          8
  pAp =  0.0009244900950912105  rzold =  0.0003613984826609458  alpha =  0.39091655452002444
 delta_qm =   0.413950E-03 delta_en =   0.115664E+00 tol =   0.100000E-03
 Iteration #          9
  pAp =  0.00020811803824603275  rzold =  0.00009004825232203889  alpha =  0.43267874846862503
 delta_qm =   0.402965E-03 delta_en =   0.109607E+00 tol =   0.100000E-03
 Iteration #         10
  pAp =  0.000055280641522728554  rzold =  0.00005169663696292703  alpha =  0.935167095368675
 delta_qm =   0.429517E-03 delta_en =   0.124527E+00 tol =   0.100000E-03
 Iteration #         11
  pAp =  0.00003838737008212113  rzold =  0.00009109544771403339  alpha =  2.3730577926842917
 delta_qm =   0.624528E-03 delta_en =   0.263274E+00 tol =   0.100000E-03
 Iteration #         12
  pAp =  0.0004593119745340692  rzold =  0.00042141430751461073  alpha =  0.9174903570543697
 delta_qm =   0.996615E-03 delta_en =   0.670438E+00 tol =   0.100000E-03
 Iteration #         13
  pAp =  0.04995286160261792  rzold =  0.0023790304767709945  alpha =  0.04762550933911491
 delta_qm =   0.853100E-03 delta_en =   0.491251E+00 tol =   0.100000E-03
 Iteration #         14
  pAp =  0.0008368938862754414  rzold =  0.0005932597239894237  alpha =  0.708882850882923
 delta_qm =   0.108322E-02 delta_en =   0.792021E+00 tol =   0.100000E-03
 Iteration #         15
  pAp =  0.00032615702030029095  rzold =  0.0002598430714273985  alpha =  0.7966809090546708
 delta_qm =   0.838812E-03 delta_en =   0.474933E+00 tol =   0.100000E-03
 Iteration #         16
  pAp =  0.00045931895519945215  rzold =  0.00028443302237934724  alpha =  0.6192494761202193
 delta_qm =   0.547193E-03 delta_en =   0.202109E+00 tol =   0.100000E-03
 Iteration #         17
  pAp =  0.0006378385548102807  rzold =  0.00029318477781712407  alpha =  0.45965358413357316
 delta_qm =   0.318124E-03 delta_en =   0.683119E-01 tol =   0.100000E-03
 Iteration #         18
  pAp =  0.0001765643360422395  rzold =  0.000101887378224759  alpha =  0.5770552565065261
 delta_qm =   0.144585E-03 delta_en =   0.141108E-01 tol =   0.100000E-03
 Iteration #         19
  pAp =  0.000022919224913261716  rzold =  0.000012309980553075929  alpha =  0.5371028295966948
 delta_qm =   0.842469E-04 delta_en =   0.479084E-02 tol =   0.100000E-03
 Iteration #         20
  pAp =  0.000002880497622135086  rzold =  0.0000017261332288703642  alpha =  0.5992482741891374
 delta_qm =   0.496355E-04 delta_en =   0.166299E-02 tol =   0.100000E-03
 Iteration #         21
  pAp =  4.3324925737741464E-7  rzold =  3.7294626910484085E-7  alpha =  0.8608122524257616
 delta_qm =   0.157392E-04 delta_en =   0.167213E-03 tol =   0.100000E-03
 Iteration #         22
  pAp =  1.8733483047196734E-7  rzold =  1.0767617231427565E-7  alpha =  0.5747792444309401
 delta_qm =   0.777359E-05 delta_en =   0.407894E-04 tol =   0.100000E-03
 Charges are converged, exit!

%%%% ELECTRONS %%%%%%%%%%%%%%%%%%%%%%%%%%%%%%%%%%%%%%%%%%%%%%%%%%%%%%%%%%%%%%%%%
 number of electrons        =         90
 total electronic charge    =     90.0000000
 number of spin components  =  1

%%%% BOUNDARY %%%%%%%%%%%%%%%%%%%%%%%%%%%%%%%%%%%%%%%%%%%%%%%%%%%%%%%%%%%%%%%%%%
 boundary mode              = electronic           
 boundary is built as a function of a smooth density
 function type              =  2 
 using the modified SCCS function with parameters 
 rhomax                     =      0.0050000 
 rhomin                     =      0.0001000 

%%%% DIELECTRIC %%%%%%%%%%%%%%%%%%%%%%%%%%%%%%%%%%%%%%%%%%%%%%%%%%%%%%%%%%%%%%%%%
 dielectric build on homogeneous background
 environment bulk permitt.  =    100.0000000 
 dielectric flags
 need gradient              =  F 
 need factor depend. sqrt   =  T 
 need gradient of logarithm =  T 
