
     Program PWSCF v.6.1 (svn rev. 13369) starts on  7Nov2017 at 16:34:33 

     This program is part of the open-source Quantum ESPRESSO suite
     for quantum simulation of materials; please cite
         "P. Giannozzi et al., J. Phys.:Condens. Matter 21 395502 (2009);
          URL http://www.quantum-espresso.org", 
     in publications or presentations arising from this work. More details at
     http://www.quantum-espresso.org/quote

     Serial version
     Reading input from neutral.in

     Current dimensions of program PWSCF are:
     Max number of different atomic species (ntypx) = 10
     Max number of k-points (npk) =  40000
     Max angular momentum in pseudopotentials (lmaxx) =  3
               file C.pbe-rrkjus.UPF: wavefunction(s)  2S 2P renormalized
               file O.pbe-rrkjus.UPF: wavefunction(s)  2S renormalized

     gamma-point specific algorithms are used

     G-vector sticks info
     --------------------
     sticks:   dense  smooth     PW     G-vecs:    dense   smooth      PW
     Sum        2205    1099    269               330909   116965   14571



     bravais-lattice index     =            8
     lattice parameter (alat)  =      10.6881  a.u.
     unit-cell volume          =    4181.1215 (a.u.)^3
     number of atoms/cell      =           10
     number of atomic types    =            3
     number of electrons       =        90.00
     number of Kohn-Sham states=           80
     kinetic-energy cutoff     =      35.0000  Ry
     charge density cutoff     =     280.0000  Ry
     convergence threshold     =      5.0E-02
     mixing beta               =       0.7000
     number of iterations used =            8  plain     mixing
     Exchange-correlation      = PBE ( 1  4  3  4 0 0)


     Environ Module
     ==============

     Plese cite
         O. Andreussi, I. Dabo and N. Marzari, J. Chem. Phys. 136, 064102 (2012)         
     in publications or presentations arising from this work.

     compensation onset threshold      =               0.1000E+03 
     static permittivity               =                   100.00 
     epsilon calculation mode          =                     full 

     Electrostatic Setup
     -------------------
     electrostatic problem to solve    = generalized              
     numerical solver adopted          = cg                       
     type of auxiliary density adopted = none                     
     type of core tool for poisson     = fft                      
     type of core tool for s(r) deriv  = analytic                 



     celldm(1)=  10.688100  celldm(2)=   0.866025  celldm(3)=   3.954220
     celldm(4)=   0.000000  celldm(5)=   0.000000  celldm(6)=   0.000000

     crystal axes: (cart. coord. in units of alat)
               a(1) = (   1.000000   0.000000   0.000000 )  
               a(2) = (   0.000000   0.866025   0.000000 )  
               a(3) = (   0.000000   0.000000   3.954220 )  

     reciprocal axes: (cart. coord. in units 2 pi/alat)
               b(1) = (  1.000000  0.000000  0.000000 )  
               b(2) = (  0.000000  1.154701  0.000000 )  
               b(3) = (  0.000000  0.000000  0.252894 )  


     PseudoPot. # 1 for C  read from file:
     /Users/oliviero/PWSCF/espresso-6.1-Environ-1.0/Environ/tests/../..//pseudo/C.pbe-rrkjus.UPF
     MD5 check sum: 00fb224312de0c5b6853bd333518df6f
     Pseudo is Ultrasoft, Zval =  4.0
     Generated by new atomic code, or converted to UPF format
     Using radial grid of  627 points,  4 beta functions with: 
                l(1) =   0
                l(2) =   0
                l(3) =   1
                l(4) =   1
     Q(r) pseudized with 0 coefficients 


     PseudoPot. # 2 for O  read from file:
     /Users/oliviero/PWSCF/espresso-6.1-Environ-1.0/Environ/tests/../..//pseudo/O.pbe-rrkjus.UPF
     MD5 check sum: 390ba29e75625707450f3bd3f0eb6be9
     Pseudo is Ultrasoft, Zval =  6.0
     Generated by new atomic code, or converted to UPF format
     Using radial grid of 1269 points,  4 beta functions with: 
                l(1) =   0
                l(2) =   0
                l(3) =   1
                l(4) =   1
     Q(r) pseudized with 0 coefficients 


     PseudoPot. # 3 for Pt read from file:
     /Users/oliviero/PWSCF/espresso-6.1-Environ-1.0/Environ/tests/../..//pseudo/Pt.pbe-n-rrkjus_psl.0.1.UPF
     MD5 check sum: df5be8f5ed4f66d4aed38ca70ec8d507
     Pseudo is Ultrasoft + core correction, Zval = 10.0
     Generated using "atomic" code by A. Dal Corso  v.5.0.2 svn rev. 9415
     Using radial grid of 1277 points,  6 beta functions with: 
                l(1) =   0
                l(2) =   0
                l(3) =   1
                l(4) =   1
                l(5) =   2
                l(6) =   2
     Q(r) pseudized with 0 coefficients 


     atomic species   valence    mass     pseudopotential
        C              4.00     1.00000     C ( 1.00)
        O              6.00     1.00000     O ( 1.00)
        Pt            10.00     1.00000     Pt( 1.00)

     No symmetry found



   Cartesian axes

     site n.     atom                  positions (alat units)
         1           C   tau(   1) = (   0.4991611   0.4347567   1.2070461  )
         2           O   tau(   2) = (   0.4991542   0.4322212   1.4109013  )
         3           Pt  tau(   3) = (   0.7542339   0.0091745   0.8413229  )
         4           Pt  tau(   4) = (   0.2441023   0.0091745   0.8413226  )
         5           Pt  tau(   5) = (   0.0000034   0.4416918   0.8391348  )
         6           Pt  tau(   6) = (   0.4991682   0.4417635   0.8776299  )
         7           Pt  tau(   7) = (   0.0000038   0.7300598   0.4308181  )
         8           Pt  tau(   8) = (   0.4991683   0.7202168   0.4447460  )
         9           Pt  tau(   9) = (   0.2524172   0.2949237   0.4386572  )
        10           Pt  tau(  10) = (   0.7459196   0.2949237   0.4386575  )

     number of k points=     1  Marzari-Vanderbilt smearing, width (Ry)=  0.0300
                       cart. coord. in units 2pi/alat
        k(    1) = (   0.0000000   0.0000000   0.0000000), wk =   2.0000000

     Dense  grid:   165455 G-vectors     FFT dimensions: (  60,  50, 225)

     Smooth grid:    58483 G-vectors     FFT dimensions: (  45,  36, 160)

     Estimated max dynamical RAM per process >     216.67MB

     Initial potential from superposition of free atoms
     Check: negative starting charge=   -0.001782

     starting charge   89.99859, renormalised to   90.00000

     negative rho (up, down):  1.782E-03 0.000E+00
     Starting wfc are   80 randomized atomic wfcs

     total cpu time spent up to now is       11.9 secs

     Self-consistent Calculation

     iteration #  1     ecut=    35.00 Ry     beta=0.70
     Davidson diagonalization with overlap
     ethr =  1.00E-02,  avg # of iterations =  8.0

     negative rho (up, down):  1.109E-03 0.000E+00

     add environment contribution to local potential
     polarization accuracy = 2.8E-05, # of iterations =  21

     total cpu time spent up to now is       20.2 secs

     total energy              =    -623.07845200 Ry
     Harris-Foulkes estimate   =    -624.45738907 Ry
     estimated scf accuracy    <       1.79975746 Ry
     electrostatic embedding   =       0.00000000 Ry
     correction to one-el term =       0.00000000 Ry

     iteration #  2     ecut=    35.00 Ry     beta=0.70
     Davidson diagonalization with overlap
     ethr =  2.00E-03,  avg # of iterations =  6.0

     negative rho (up, down):  1.454E-02 0.000E+00

     add environment contribution to local potential
     polarization accuracy = 6.7E-05, # of iterations =  28

     total cpu time spent up to now is       29.1 secs

     total energy              =    -621.48395941 Ry
     Harris-Foulkes estimate   =    -657.06015429 Ry
     estimated scf accuracy    <      16.73889232 Ry
     electrostatic embedding   =       0.00075839 Ry
     correction to one-el term =      30.87276546 Ry

     iteration #  3     ecut=    35.00 Ry     beta=0.70
     Davidson diagonalization with overlap
     ethr =  2.00E-03,  avg # of iterations =  6.0

     negative rho (up, down):  9.454E-03 0.000E+00

     add environment contribution to local potential
     polarization accuracy = 5.0E-05, # of iterations =  24

     total cpu time spent up to now is       37.9 secs

     total energy              =    -623.56647993 Ry
     Harris-Foulkes estimate   =    -653.04581487 Ry
     estimated scf accuracy    <       6.09808147 Ry
     electrostatic embedding   =      -0.01623685 Ry
     correction to one-el term =      28.55143542 Ry

     iteration #  4     ecut=    35.00 Ry     beta=0.70
     Davidson diagonalization with overlap
     ethr =  2.00E-03,  avg # of iterations =  1.0

     negative rho (up, down):  6.996E-03 0.000E+00

     add environment contribution to local potential
     polarization accuracy = 9.6E-05, # of iterations =  27

     total cpu time spent up to now is       46.2 secs

     total energy              =    -623.76974379 Ry
     Harris-Foulkes estimate   =    -652.23662306 Ry
     estimated scf accuracy    <       3.36296635 Ry
     electrostatic embedding   =      -0.01725970 Ry
     correction to one-el term =      27.92131674 Ry

     iteration #  5     ecut=    35.00 Ry     beta=0.70
     Davidson diagonalization with overlap
     ethr =  2.00E-03,  avg # of iterations =  8.0

     negative rho (up, down):  1.145E-02 0.000E+00

     add environment contribution to local potential
     polarization accuracy = 2.8E-05, # of iterations =  38

     total cpu time spent up to now is       56.2 secs

     total energy              =    -624.22637585 Ry
     Harris-Foulkes estimate   =    -651.48798350 Ry
     estimated scf accuracy    <       7.17850407 Ry
     electrostatic embedding   =      -0.03823358 Ry
     correction to one-el term =      26.95747585 Ry

     iteration #  6     ecut=    35.00 Ry     beta=0.70
     Davidson diagonalization with overlap
     WARNING:    17 eigenvalues not converged in regterg
     WARNING:     4 eigenvalues not converged in regterg
     c_bands:  4 eigenvalues not converged
     ethr =  2.00E-03,  avg # of iterations = 40.0

     negative rho (up, down):  6.003E-02 0.000E+00

     total cpu time spent up to now is       68.8 secs

     total energy              =    -704.69260746 Ry
     Harris-Foulkes estimate   =    -695.97768324 Ry
     estimated scf accuracy    <    1477.36158967 Ry
     electrostatic embedding   =      -0.26618350 Ry
     correction to one-el term =      -6.39085935 Ry

     iteration #  7     ecut=    35.00 Ry     beta=0.70
     Davidson diagonalization with overlap
     WARNING:     8 eigenvalues not converged in regterg
     WARNING:    10 eigenvalues not converged in regterg
     ethr =  2.00E-03,  avg # of iterations = 43.0

     negative rho (up, down):  1.128E-01 0.000E+00

     total cpu time spent up to now is       78.8 secs

     total energy              =    -709.43715564 Ry
     Harris-Foulkes estimate   =    -701.25690318 Ry
     estimated scf accuracy    <    1859.66892126 Ry
     electrostatic embedding   =      -0.25184743 Ry
     correction to one-el term =      -6.28263296 Ry

     iteration #  8     ecut=    35.00 Ry     beta=0.70
     Davidson diagonalization with overlap
     WARNING:     1 eigenvalues not converged in regterg
     c_bands:  1 eigenvalues not converged
     ethr =  2.00E-03,  avg # of iterations = 20.0

     negative rho (up, down):  1.835E-01 0.000E+00

     total cpu time spent up to now is       84.1 secs

     total energy              =    -711.05764887 Ry
     Harris-Foulkes estimate   =    -703.02295092 Ry
     estimated scf accuracy    <    1956.06927742 Ry
     electrostatic embedding   =      -0.21011769 Ry
     correction to one-el term =      -6.23255391 Ry

     iteration #  9     ecut=    35.00 Ry     beta=0.70
     Davidson diagonalization with overlap
     ethr =  2.00E-03,  avg # of iterations =  2.0

     negative rho (up, down):  1.670E-01 0.000E+00

     total cpu time spent up to now is       88.9 secs

     total energy              =    -710.83082306 Ry
     Harris-Foulkes estimate   =    -704.63521754 Ry
     estimated scf accuracy    <    1962.64639560 Ry
     electrostatic embedding   =      -0.21409044 Ry
     correction to one-el term =      -6.20212623 Ry

     iteration # 10     ecut=    35.00 Ry     beta=0.70
     Davidson diagonalization with overlap
     ethr =  2.00E-03,  avg # of iterations =  1.0

     negative rho (up, down):  3.803E-01 0.000E+00

     total cpu time spent up to now is       93.5 secs

     total energy              =    -705.46616456 Ry
     Harris-Foulkes estimate   =    -704.42472344 Ry
     estimated scf accuracy    <    1964.63539680 Ry
     electrostatic embedding   =      -0.38882552 Ry
     correction to one-el term =      -2.48984043 Ry

     iteration # 11     ecut=    35.00 Ry     beta=0.70
     Davidson diagonalization with overlap
     ethr =  2.00E-03,  avg # of iterations =  1.0

     negative rho (up, down):  5.333E-01 0.000E+00

     total cpu time spent up to now is       98.3 secs

     total energy              =    -706.25321691 Ry
     Harris-Foulkes estimate   =    -702.72332790 Ry
     estimated scf accuracy    <    2045.85617221 Ry
     electrostatic embedding   =      -0.37301388 Ry
     correction to one-el term =      -2.81387095 Ry

     iteration # 12     ecut=    35.00 Ry     beta=0.70
     Davidson diagonalization with overlap
     ethr =  2.00E-03,  avg # of iterations =  1.0

     negative rho (up, down):  6.942E-01 0.000E+00

     total cpu time spent up to now is      103.0 secs

     total energy              =    -704.96534193 Ry
     Harris-Foulkes estimate   =    -703.12391146 Ry
     estimated scf accuracy    <    2048.43515076 Ry
     electrostatic embedding   =      -0.42224956 Ry
     correction to one-el term =      -2.11758204 Ry

     iteration # 13     ecut=    35.00 Ry     beta=0.70
     Davidson diagonalization with overlap
     ethr =  2.00E-03,  avg # of iterations =  1.0

     negative rho (up, down):  1.616E+00 0.000E+00

     total cpu time spent up to now is      107.8 secs

     total energy              =    -712.34264989 Ry
     Harris-Foulkes estimate   =    -702.46151728 Ry
     estimated scf accuracy    <    2086.27586980 Ry
     electrostatic embedding   =      -0.07352165 Ry
     correction to one-el term =       0.62558874 Ry

     iteration # 14     ecut=    35.00 Ry     beta=0.70
     Davidson diagonalization with overlap
     ethr =  2.00E-03,  avg # of iterations =  1.0

     negative rho (up, down):  5.955E+01 0.000E+00

     total cpu time spent up to now is      113.1 secs

     total energy              =    -600.63059751 Ry
     Harris-Foulkes estimate   =    -713.47055469 Ry
     estimated scf accuracy    <    2087.07851584 Ry
     electrostatic embedding   =      -9.19493861 Ry
     correction to one-el term =      61.39080511 Ry

     iteration # 15     ecut=    35.00 Ry     beta=0.70
     Davidson diagonalization with overlap
     WARNING:    73 eigenvalues not converged in regterg
     WARNING:    46 eigenvalues not converged in regterg
     WARNING:     7 eigenvalues not converged in regterg
     ethr =  2.00E-03,  avg # of iterations = 64.0

     negative rho (up, down):  1.213E+01 0.000E+00

     total cpu time spent up to now is      145.2 secs

     total energy              =    -664.57695720 Ry
     Harris-Foulkes estimate   =   -1235.79040303 Ry
     estimated scf accuracy    <    1694.36127239 Ry
     electrostatic embedding   =      -6.78578158 Ry
     correction to one-el term =      33.58506098 Ry

     iteration # 16     ecut=    35.00 Ry     beta=0.70
     Davidson diagonalization with overlap
     WARNING:    29 eigenvalues not converged in regterg
     WARNING:    11 eigenvalues not converged in regterg
     ethr =  2.00E-03,  avg # of iterations = 44.0

     negative rho (up, down):  9.991E+00 0.000E+00

     total cpu time spent up to now is      164.5 secs

     total energy              =    -530.98965836 Ry
     Harris-Foulkes estimate   =    -838.00092010 Ry
     estimated scf accuracy    <    1617.62165486 Ry
     electrostatic embedding   =      -1.13383078 Ry
     correction to one-el term =       8.71976497 Ry

     iteration # 17     ecut=    35.00 Ry     beta=0.70
     Davidson diagonalization with overlap
     WARNING:    18 eigenvalues not converged in regterg
     WARNING:     7 eigenvalues not converged in regterg
     WARNING:     1 eigenvalues not converged in regterg
     c_bands:  1 eigenvalues not converged
     ethr =  2.00E-03,  avg # of iterations = 60.0

     negative rho (up, down):  8.060E+00 0.000E+00

     total cpu time spent up to now is      183.9 secs

     total energy              =    -629.04234609 Ry
     Harris-Foulkes estimate   =    -721.50012274 Ry
     estimated scf accuracy    <     360.86786282 Ry
     electrostatic embedding   =      -1.68145812 Ry
     correction to one-el term =       8.15878802 Ry

     iteration # 18     ecut=    35.00 Ry     beta=0.70
     Davidson diagonalization with overlap
     WARNING:     8 eigenvalues not converged in regterg
     WARNING:    20 eigenvalues not converged in regterg
     ethr =  2.00E-03,  avg # of iterations = 57.0

     negative rho (up, down):  7.709E+00 0.000E+00

     total cpu time spent up to now is      197.4 secs

     total energy              =    -640.79166121 Ry
     Harris-Foulkes estimate   =    -658.43600371 Ry
     estimated scf accuracy    <     434.47604466 Ry
     electrostatic embedding   =      -1.79514326 Ry
     correction to one-el term =       5.26437004 Ry

     iteration # 19     ecut=    35.00 Ry     beta=0.70
     Davidson diagonalization with overlap
     ethr =  2.00E-03,  avg # of iterations = 18.0

     negative rho (up, down):  6.924E+00 0.000E+00

     total cpu time spent up to now is      204.9 secs

     total energy              =    -627.40856372 Ry
     Harris-Foulkes estimate   =    -657.47269558 Ry
     estimated scf accuracy    <     376.75388831 Ry
     electrostatic embedding   =      -2.29347817 Ry
     correction to one-el term =      13.09496395 Ry

     iteration # 20     ecut=    35.00 Ry     beta=0.70
     Davidson diagonalization with overlap
     WARNING:     4 eigenvalues not converged in regterg
     c_bands:  4 eigenvalues not converged
     ethr =  2.00E-03,  avg # of iterations = 20.0

     negative rho (up, down):  3.594E+00 0.000E+00

     total cpu time spent up to now is      213.1 secs

     total energy              =    -621.34710238 Ry
     Harris-Foulkes estimate   =    -655.85856352 Ry
     estimated scf accuracy    <     165.39177380 Ry
     electrostatic embedding   =      -2.93622454 Ry
     correction to one-el term =      15.52463170 Ry

     iteration # 21     ecut=    35.00 Ry     beta=0.70
     Davidson diagonalization with overlap
     ethr =  2.00E-03,  avg # of iterations = 16.0

     negative rho (up, down):  1.858E+00 0.000E+00

     total cpu time spent up to now is      220.6 secs

     total energy              =    -608.15854531 Ry
     Harris-Foulkes estimate   =    -655.78776656 Ry
     estimated scf accuracy    <     130.13827055 Ry
     electrostatic embedding   =      -3.36062891 Ry
     correction to one-el term =      22.63552086 Ry

     iteration # 22     ecut=    35.00 Ry     beta=0.70
     Davidson diagonalization with overlap
     WARNING:     6 eigenvalues not converged in regterg
     ethr =  2.00E-03,  avg # of iterations = 30.0

     negative rho (up, down):  6.728E-01 0.000E+00

     add environment contribution to local potential
 Warning: Polarization charge not converged
     polarization accuracy = 6.6E+03, # of iterations = 201

     total cpu time spent up to now is      254.9 secs

     total energy              =    -619.31705984 Ry
     Harris-Foulkes estimate   =    -663.03197265 Ry
     estimated scf accuracy    <      96.16450632 Ry
     electrostatic embedding   =      -3.59608696 Ry
     correction to one-el term =      22.16154521 Ry

     iteration # 23     ecut=    35.00 Ry     beta=0.70
     Davidson diagonalization with overlap
     ethr =  2.00E-03,  avg # of iterations =  8.0

     negative rho (up, down):  7.318E-01 0.000E+00

     add environment contribution to local potential
 Warning: Polarization charge not converged
     polarization accuracy = 2.3E+04, # of iterations = 201

     total cpu time spent up to now is      285.2 secs

     total energy              =    -625.29173867 Ry
     Harris-Foulkes estimate   =    -607.36978910 Ry
     estimated scf accuracy    <      94.92534963 Ry
     electrostatic embedding   =      -4.01353454 Ry
     correction to one-el term =     -18.70368760 Ry

     iteration # 24     ecut=    35.00 Ry     beta=0.70
     Davidson diagonalization with overlap
     ethr =  2.00E-03,  avg # of iterations =  2.0

     negative rho (up, down):  6.186E-01 0.000E+00

     add environment contribution to local potential
 Warning: Polarization charge not converged
     polarization accuracy = 3.1E+06, # of iterations = 201

     total cpu time spent up to now is      314.5 secs

     total energy              =    -622.09063574 Ry
     Harris-Foulkes estimate   =    -605.70500998 Ry
     estimated scf accuracy    <      40.86794873 Ry
     electrostatic embedding   =      -3.80280368 Ry
     correction to one-el term =     -17.06690174 Ry

     iteration # 25     ecut=    35.00 Ry     beta=0.70
     Davidson diagonalization with overlap
     WARNING:     1 eigenvalues not converged in regterg
     c_bands:  1 eigenvalues not converged
     ethr =  2.00E-03,  avg # of iterations = 20.0

     negative rho (up, down):  4.276E-01 0.000E+00

     add environment contribution to local potential
 Warning: Polarization charge not converged
     polarization accuracy = 5.3E+03, # of iterations = 201

     total cpu time spent up to now is      347.4 secs

     total energy              =    -710.03105990 Ry
     Harris-Foulkes estimate   =    -615.38927747 Ry
     estimated scf accuracy    <      59.46623828 Ry
     electrostatic embedding   =      -3.31396585 Ry
     correction to one-el term =     -95.40498994 Ry

     iteration # 26     ecut=    35.00 Ry     beta=0.70
     Davidson diagonalization with overlap
     ethr =  2.00E-03,  avg # of iterations =  8.0

     negative rho (up, down):  2.687E-01 0.000E+00

     add environment contribution to local potential
 Warning: Polarization charge not converged
     polarization accuracy = 2.1E+03, # of iterations = 201

     total cpu time spent up to now is      377.6 secs

     total energy              =    -622.90803553 Ry
     Harris-Foulkes estimate   =    -599.73466643 Ry
     estimated scf accuracy    <      11.94630183 Ry
     electrostatic embedding   =      -3.33533374 Ry
     correction to one-el term =     -21.94897665 Ry

     iteration # 27     ecut=    35.00 Ry     beta=0.70
     Davidson diagonalization with overlap
     ethr =  2.00E-03,  avg # of iterations =  3.0

     negative rho (up, down):  1.610E-01 0.000E+00

     add environment contribution to local potential
 Warning: Polarization charge not converged
     polarization accuracy = 9.8E+03, # of iterations = 201

     total cpu time spent up to now is      407.8 secs

     total energy              =    -623.65088636 Ry
     Harris-Foulkes estimate   =    -602.08052891 Ry
     estimated scf accuracy    <       7.81042305 Ry
     electrostatic embedding   =      -3.05218507 Ry
     correction to one-el term =     -19.63511544 Ry

     iteration # 28     ecut=    35.00 Ry     beta=0.70
     Davidson diagonalization with overlap
     ethr =  2.00E-03,  avg # of iterations =  6.0

     negative rho (up, down):  1.237E-01 0.000E+00

     add environment contribution to local potential
 Warning: Polarization charge not converged
     polarization accuracy = 1.1E+03, # of iterations = 201

     total cpu time spent up to now is      437.6 secs

     total energy              =    -624.15647336 Ry
     Harris-Foulkes estimate   =    -605.60094127 Ry
     estimated scf accuracy    <       9.57028790 Ry
     electrostatic embedding   =      -2.63193122 Ry
     correction to one-el term =     -16.76353448 Ry

     iteration # 29     ecut=    35.00 Ry     beta=0.70
     Davidson diagonalization with overlap
     ethr =  2.00E-03,  avg # of iterations =  4.0

     negative rho (up, down):  3.340E-02 0.000E+00

     add environment contribution to local potential
     polarization accuracy = 7.2E-05, # of iterations = 137

     total cpu time spent up to now is      459.7 secs

     total energy              =    -621.48103341 Ry
     Harris-Foulkes estimate   =    -607.65857104 Ry
     estimated scf accuracy    <      23.95794800 Ry
     electrostatic embedding   =      -1.88665185 Ry
     correction to one-el term =     -16.42285028 Ry

     iteration # 30     ecut=    35.00 Ry     beta=0.70
     Davidson diagonalization with overlap
     WARNING:    35 eigenvalues not converged in regterg
     WARNING:    11 eigenvalues not converged in regterg
     WARNING:    19 eigenvalues not converged in regterg
     WARNING:     9 eigenvalues not converged in regterg
     WARNING:    11 eigenvalues not converged in regterg
     WARNING:     5 eigenvalues not converged in regterg
     c_bands:  5 eigenvalues not converged
     ethr =  2.00E-03,  avg # of iterations =120.0

     negative rho (up, down):  3.924E+00 0.000E+00

     total cpu time spent up to now is      489.4 secs

     total energy              =    -430.47848089 Ry
     Harris-Foulkes estimate   =    -825.90468772 Ry
     estimated scf accuracy    <     213.59174724 Ry
     electrostatic embedding   =      -0.44259975 Ry
     correction to one-el term =     393.12408968 Ry

     iteration # 31     ecut=    35.00 Ry     beta=0.70
     Davidson diagonalization with overlap
     WARNING:     3 eigenvalues not converged in regterg
     c_bands:  3 eigenvalues not converged
     ethr =  2.00E-03,  avg # of iterations = 20.0

     negative rho (up, down):  8.732E+00 0.000E+00

     total cpu time spent up to now is      495.9 secs

     total energy              =    -793.51274397 Ry
     Harris-Foulkes estimate   =    -840.24663739 Ry
     estimated scf accuracy    <     248.98975522 Ry
     electrostatic embedding   =      -0.58933207 Ry
     correction to one-el term =      46.09184110 Ry

     iteration # 32     ecut=    35.00 Ry     beta=0.70
     Davidson diagonalization with overlap
     WARNING:     5 eigenvalues not converged in regterg
     c_bands:  5 eigenvalues not converged
     ethr =  2.00E-03,  avg # of iterations = 20.0

     negative rho (up, down):  1.169E+01 0.000E+00

     total cpu time spent up to now is      501.7 secs

     total energy              =   -1017.01017007 Ry
     Harris-Foulkes estimate   =    -846.67017795 Ry
     estimated scf accuracy    <     248.20804339 Ry
     electrostatic embedding   =      -0.28366018 Ry
     correction to one-el term =    -175.01063994 Ry

     iteration # 33     ecut=    35.00 Ry     beta=0.70
     Davidson diagonalization with overlap
     WARNING:     1 eigenvalues not converged in regterg
     c_bands:  1 eigenvalues not converged
     ethr =  2.00E-03,  avg # of iterations = 20.0

     negative rho (up, down):  1.232E+01 0.000E+00

     total cpu time spent up to now is      507.1 secs

     total energy              =   -1393.50226881 Ry
     Harris-Foulkes estimate   =    -846.95856614 Ry
     estimated scf accuracy    <     175.31686684 Ry
     electrostatic embedding   =      -0.61341376 Ry
     correction to one-el term =    -549.57266730 Ry

     iteration # 34     ecut=    35.00 Ry     beta=0.70
     Davidson diagonalization with overlap
     WARNING:     1 eigenvalues not converged in regterg
     c_bands:  1 eigenvalues not converged
     ethr =  2.00E-03,  avg # of iterations = 20.0

     negative rho (up, down):  1.304E+01 0.000E+00

     total cpu time spent up to now is      512.5 secs

     total energy              =   -1442.87685146 Ry
     Harris-Foulkes estimate   =    -849.07764047 Ry
     estimated scf accuracy    <     270.06175483 Ry
     electrostatic embedding   =      -0.60734718 Ry
     correction to one-el term =    -593.60512028 Ry

     iteration # 35     ecut=    35.00 Ry     beta=0.70
     Davidson diagonalization with overlap
     WARNING:     1 eigenvalues not converged in regterg
     c_bands:  1 eigenvalues not converged
     ethr =  2.00E-03,  avg # of iterations = 20.0

     negative rho (up, down):  1.372E+01 0.000E+00

     total cpu time spent up to now is      517.8 secs

     total energy              =   -1475.03331302 Ry
     Harris-Foulkes estimate   =    -849.55444551 Ry
     estimated scf accuracy    <     280.56078960 Ry
     electrostatic embedding   =      -0.65864728 Ry
     correction to one-el term =    -627.57894746 Ry

     iteration # 36     ecut=    35.00 Ry     beta=0.70
     Davidson diagonalization with overlap
     WARNING:     1 eigenvalues not converged in regterg
     c_bands:  1 eigenvalues not converged
     ethr =  2.00E-03,  avg # of iterations = 20.0

     negative rho (up, down):  1.381E+01 0.000E+00

     total cpu time spent up to now is      523.2 secs

     total energy              =   -1455.48403151 Ry
     Harris-Foulkes estimate   =    -847.55762361 Ry
     estimated scf accuracy    <     236.68082394 Ry
     electrostatic embedding   =      -0.63359877 Ry
     correction to one-el term =    -606.84273412 Ry

     iteration # 37     ecut=    35.00 Ry     beta=0.70
     Davidson diagonalization with overlap
     WARNING:     1 eigenvalues not converged in regterg
     c_bands:  1 eigenvalues not converged
     ethr =  2.00E-03,  avg # of iterations = 20.0

     negative rho (up, down):  1.327E+01 0.000E+00

     total cpu time spent up to now is      528.5 secs

     total energy              =   -1769.79458285 Ry
     Harris-Foulkes estimate   =    -848.80558526 Ry
     estimated scf accuracy    <     289.32796013 Ry
     electrostatic embedding   =      -0.16427992 Ry
     correction to one-el term =    -928.63437737 Ry

     iteration # 38     ecut=    35.00 Ry     beta=0.70
     Davidson diagonalization with overlap
     WARNING:     1 eigenvalues not converged in regterg
     c_bands:  1 eigenvalues not converged
     ethr =  2.00E-03,  avg # of iterations = 20.0

     negative rho (up, down):  1.306E+01 0.000E+00

     total cpu time spent up to now is      533.9 secs

     total energy              =   -2498.94750294 Ry
     Harris-Foulkes estimate   =    -850.75801360 Ry
     estimated scf accuracy    <     181.12026809 Ry
     electrostatic embedding   =      -0.61317006 Ry
     correction to one-el term =   -1703.08936345 Ry

     iteration # 39     ecut=    35.00 Ry     beta=0.70
     Davidson diagonalization with overlap
     WARNING:     1 eigenvalues not converged in regterg
     c_bands:  1 eigenvalues not converged
     ethr =  2.00E-03,  avg # of iterations = 20.0

     negative rho (up, down):  8.976E+00 0.000E+00

     total cpu time spent up to now is      539.3 secs

     total energy              =   -1154.72795387 Ry
     Harris-Foulkes estimate   =    -856.79441487 Ry
     estimated scf accuracy    <     221.65836211 Ry
     electrostatic embedding   =      -0.56877513 Ry
     correction to one-el term =    -376.65698161 Ry

     iteration # 40     ecut=    35.00 Ry     beta=0.70
     Davidson diagonalization with overlap
     ethr =  2.00E-03,  avg # of iterations =  1.0

     negative rho (up, down):  5.687E+00 0.000E+00

     total cpu time spent up to now is      544.1 secs

     total energy              =    -470.98246613 Ry
     Harris-Foulkes estimate   =    -827.12460401 Ry
     estimated scf accuracy    <     111.79643328 Ry
     electrostatic embedding   =      -0.61586950 Ry
     correction to one-el term =     316.66884331 Ry

     iteration # 41     ecut=    35.00 Ry     beta=0.70
     Davidson diagonalization with overlap
     ethr =  2.00E-03,  avg # of iterations =  3.0

     negative rho (up, down):  9.079E+00 0.000E+00

     add environment contribution to local potential
 Warning: Polarization charge not converged
     polarization accuracy = 1.5E+12, # of iterations = 201

     total cpu time spent up to now is      573.5 secs

     total energy              =   -1336.95721324 Ry
     Harris-Foulkes estimate   =    -814.83379311 Ry
     estimated scf accuracy    <      46.10225136 Ry
     electrostatic embedding   =      -0.95944770 Ry
     correction to one-el term =    -536.59307180 Ry

     iteration # 42     ecut=    35.00 Ry     beta=0.70
     Davidson diagonalization with overlap
     WARNING:    54 eigenvalues not converged in regterg
     WARNING:    47 eigenvalues not converged in regterg
     WARNING:    32 eigenvalues not converged in regterg
     WARNING:    52 eigenvalues not converged in regterg
     WARNING:    33 eigenvalues not converged in regterg
     WARNING:    22 eigenvalues not converged in regterg

 %%%%%%%%%%%%%%%%%%%%%%%%%%%%%%%%%%%%%%%%%%%%%%%%%%%%%%%%%%%%%%%%%%%%%%%%%%%%%%
     Error in routine c_bands (1):
     too many bands are not converged
 %%%%%%%%%%%%%%%%%%%%%%%%%%%%%%%%%%%%%%%%%%%%%%%%%%%%%%%%%%%%%%%%%%%%%%%%%%%%%%

     stopping ...

%%%% IONS %%%%%%%%%%%%%%%%%%%%%%%%%%%%%%%%%%%%%%%%%%%%%%%%%%%%%%%%%%%%%%%%%%%%%%
 number of ions             =         10
 ionic center of charge     =      0.3882415     0.3750182     0.7201831
 total ionic charge         =    -90.0000000
 ionic dipole               =      0.0000000     0.0000000     0.0000000
 ionic quadrupole (pc)      =   -730.5101255  -614.6110457  -876.7220256
 ionic quadrupole (gauss)   =   -741.7601255  -625.8610457  -887.9720256
 ion   1 type =  1 coordinates =      5.3350841     4.6467234    12.9010299
 ion   2 type =  2 coordinates =      5.3350096     4.6196233    15.0798543
 ion   3 type =  3 coordinates =      8.0613271     0.0980580     8.9921429
 ion   4 type =  3 coordinates =      2.6089894     0.0980583     8.9921406
 ion   5 type =  3 coordinates =      0.0000366     4.7208463     8.9687569
 ion   6 type =  3 coordinates =      5.3351596     4.7216127     9.3801964
 ion   7 type =  3 coordinates =      0.0000411     7.8029520     4.6046265
 ion   8 type =  3 coordinates =      5.3351612     7.6977491     4.7534894
 ion   9 type =  3 coordinates =      2.6978606     3.1521739     4.6884123
 ion  10 type =  3 coordinates =      7.9724637     3.1521745     4.6884152

%%%% SYSTEM %%%%%%%%%%%%%%%%%%%%%%%%%%%%%%%%%%%%%%%%%%%%%%%%%%%%%%%%%%%%%%%%%%%%
 system is built from all present ionic types
 system defined dimension   =  0 
 system defined axis        =  3 
 system center              =      0.3882415     0.3750182     0.7201831 
 system width               =      1.5145225 

%%%% ELECTRONS %%%%%%%%%%%%%%%%%%%%%%%%%%%%%%%%%%%%%%%%%%%%%%%%%%%%%%%%%%%%%%%%%
 number of electrons        =         90
 total electronic charge    =     90.0000000
 number of spin components  =  1

%%%% BOUNDARY %%%%%%%%%%%%%%%%%%%%%%%%%%%%%%%%%%%%%%%%%%%%%%%%%%%%%%%%%%%%%%%%%%
 boundary mode              = full                 
 boundary is built as a function of a smooth density
 function type              =  2 
 using the modified SCCS function with parameters 
 rhomax                     =      0.0050000 
 rhomin                     =      0.0001000 
 volume of the QM region    =   1646.1970896 
 surface of the QM region   =    245.8311530 

%%%% DIELECTRIC %%%%%%%%%%%%%%%%%%%%%%%%%%%%%%%%%%%%%%%%%%%%%%%%%%%%%%%%%%%%%%%%%
 dielectric build on homogeneous background
 environment bulk permitt.  =    100.0000000 
 dielectric flags
 need gradient              =  F 
 need factor depend. sqrt   =  T 
 need gradient of logarithm =  T 

%%%% COMPUTE ELECTROSTATIC POTENTIAL %%%%%%%%%%%%%%%%%%%%%%%%%%%%%%%%%%%%%%%%%%%
 Iteration #          1
  pAp =    1284.1466871658251       rzold =    1283.8181484050710       alpha =   0.99974415791899973     
 delta_qm =   0.177452E-01 delta_en =   0.212552E+03 tol =   0.100000E-03
 Iteration #          2
  pAp =    29.938113990830686       rzold =    2.2040992308142688       alpha =    7.3621846435928812E-002
 delta_qm =   0.156783E-01 delta_en =   0.165921E+03 tol =   0.100000E-03
 Iteration #          3
  pAp =    17.672610328152516       rzold =    1.3805631056342786       alpha =    7.8118799656609755E-002
 delta_qm =   0.829862E-02 delta_en =   0.464853E+02 tol =   0.100000E-03
 Iteration #          4
  pAp =    5.0276121187733405E-002  rzold =    3.2721474854379554E-002  alpha =   0.65083530871834816     
 delta_qm =   0.929125E-02 delta_en =   0.582709E+02 tol =   0.100000E-03
 Iteration #          5
  pAp =   0.29347223525901012       rzold =    1.1711184531055928E-002  alpha =    3.9905596250766194E-002
 delta_qm =   0.825962E-02 delta_en =   0.460494E+02 tol =   0.100000E-03
 Iteration #          6
  pAp =   -6.1105746445726311E-003  rzold =   -1.2316392227764726E-002  alpha =    2.0155865764120988     
 delta_qm =   0.178367E-02 delta_en =   0.214749E+01 tol =   0.100000E-03
 Iteration #          7
  pAp =    1.4071903300858083E-002  rzold =    6.0915174005739059E-003  alpha =   0.43288510945086256     
 delta_qm =   0.475165E-03 delta_en =   0.152402E+00 tol =   0.100000E-03
 Iteration #          8
  pAp =    1.2015188804631043E-003  rzold =    4.9388621470691850E-004  alpha =   0.41105156376449015     
 delta_qm =   0.253590E-03 delta_en =   0.434077E-01 tol =   0.100000E-03
 Iteration #          9
  pAp =    2.5321613624048044E-004  rzold =    9.0601301120464293E-005  alpha =   0.35780224145912981     
 delta_qm =   0.208965E-03 delta_en =   0.294749E-01 tol =   0.100000E-03
 Iteration #         10
  pAp =    3.4785497949869895E-005  rzold =    1.9092617676522993E-005  alpha =   0.54886716596777663     
 delta_qm =   0.186390E-03 delta_en =   0.234502E-01 tol =   0.100000E-03
 Iteration #         11
  pAp =    1.6288149568700067E-005  rzold =    1.4316699720422440E-005  alpha =   0.87896416103238395     
 delta_qm =   0.174137E-03 delta_en =   0.204685E-01 tol =   0.100000E-03
 Iteration #         12
  pAp =    1.2097577944640873E-005  rzold =    2.0376282429352745E-005  alpha =    1.6843274350118380     
 delta_qm =   0.302355E-03 delta_en =   0.617076E-01 tol =   0.100000E-03
 Iteration #         13
  pAp =    4.7009715337010143E-005  rzold =    3.3252890098021628E-005  alpha =   0.70736208163851733     
 delta_qm =   0.327363E-03 delta_en =   0.723373E-01 tol =   0.100000E-03
 Iteration #         14
  pAp =    2.1733511736887847E-003  rzold =    1.3959361931681986E-004  alpha =    6.4229665691757698E-002
 delta_qm =   0.392189E-03 delta_en =   0.103823E+00 tol =   0.100000E-03
 Iteration #         15
  pAp =    1.5229591749160354E-004  rzold =    7.5612612555047668E-005  alpha =   0.49648482901202118     
 delta_qm =   0.383782E-03 delta_en =   0.994197E-01 tol =   0.100000E-03
 Iteration #         16
  pAp =    5.4515249979456835E-005  rzold =    7.0782122290754659E-005  alpha =    1.2983912266279201     
 delta_qm =   0.330749E-03 delta_en =   0.738417E-01 tol =   0.100000E-03
 Iteration #         17
  pAp =    9.6780535908299784E-005  rzold =    1.0842431437627151E-004  alpha =    1.1203111592500818     
 delta_qm =   0.207722E-03 delta_en =   0.291251E-01 tol =   0.100000E-03
 Iteration #         18
  pAp =    6.3526351796961219E-005  rzold =    4.0038948813791158E-005  alpha =   0.63027307064257421     
 delta_qm =   0.935557E-04 delta_en =   0.590805E-02 tol =   0.100000E-03
 Iteration #         19
  pAp =    5.5182572528934983E-006  rzold =    3.4685582518648668E-006  alpha =   0.62856044814622014     
 delta_qm =   0.424311E-04 delta_en =   0.121527E-02 tol =   0.100000E-03
 Iteration #         20
  pAp =    7.7409666703122239E-007  rzold =    4.5788251813821269E-007  alpha =   0.59150560600430080     
 delta_qm =   0.209025E-04 delta_en =   0.294917E-03 tol =   0.100000E-03
 Iteration #         21
  pAp =    1.9368004853697668E-007  rzold =    1.3709448009464481E-007  alpha =   0.70783997180004443     
 delta_qm =   0.645100E-05 delta_en =   0.280904E-04 tol =   0.100000E-03
 Charges are converged, EXIT

%%%% ELECTRONS %%%%%%%%%%%%%%%%%%%%%%%%%%%%%%%%%%%%%%%%%%%%%%%%%%%%%%%%%%%%%%%%%
 number of electrons        =         90
 total electronic charge    =     90.0000000
 number of spin components  =  1

%%%% BOUNDARY %%%%%%%%%%%%%%%%%%%%%%%%%%%%%%%%%%%%%%%%%%%%%%%%%%%%%%%%%%%%%%%%%%
 boundary mode              = full                 
 boundary is built as a function of a smooth density
 function type              =  2 
 using the modified SCCS function with parameters 
 rhomax                     =      0.0050000 
 rhomin                     =      0.0001000 
 volume of the QM region    =   1627.5184641 
 surface of the QM region   =    329.4634887 

%%%% DIELECTRIC %%%%%%%%%%%%%%%%%%%%%%%%%%%%%%%%%%%%%%%%%%%%%%%%%%%%%%%%%%%%%%%%%
 dielectric build on homogeneous background
 environment bulk permitt.  =    100.0000000 
 dielectric flags
 need gradient              =  F 
 need factor depend. sqrt   =  T 
 need gradient of logarithm =  T 

%%%% COMPUTE ELECTROSTATIC POTENTIAL %%%%%%%%%%%%%%%%%%%%%%%%%%%%%%%%%%%%%%%%%%%
 Warning: bad guess with residual norm =   0.791168E+04, reset to no guess
 Iteration #          1
  pAp =    1276.4946814767509       rzold =    1275.8894253204644       alpha =   0.99952584514054832     
 delta_qm =   0.112934E+00 delta_en =   0.860908E+04 tol =   0.100000E-03
 Iteration #          2
  pAp =    782.84490659006906       rzold =    20.887320733433903       alpha =    2.6681301184439326E-002
 delta_qm =   0.370680E-01 delta_en =   0.927476E+03 tol =   0.100000E-03
 Iteration #          3
  pAp =   0.49490661700078531       rzold =   -1.9291617650871887E-003  alpha =   -3.8980318686749897E-003
 delta_qm =   0.366179E-01 delta_en =   0.905089E+03 tol =   0.100000E-03
 Iteration #          4
  pAp =    1.7619193794852266E-004  rzold =    1.9512128972997873E-003  alpha =    11.074359701235966     
 delta_qm =   0.767057E-02 delta_en =   0.397154E+02 tol =   0.100000E-03
 Iteration #          5
  pAp =    8.7664022957314888E-002  rzold =    2.7934730311809080E-002  alpha =   0.31865672335629608     
 delta_qm =   0.169614E-01 delta_en =   0.194190E+03 tol =   0.100000E-03
 Iteration #          6
  pAp =   -6.6973777733748442E-003  rzold =    8.7210130526118590E-003  alpha =   -1.3021533722170930     
 delta_qm =   0.432815E-01 delta_en =   0.126447E+04 tol =   0.100000E-03
 Iteration #          7
  pAp =   0.50772289237113954       rzold =    6.5886249313255360E-002  alpha =   0.12976812805417740     
 delta_qm =   0.293258E-02 delta_en =   0.580503E+01 tol =   0.100000E-03
 Iteration #          8
  pAp =    3.1795824130567158E-003  rzold =    1.2353830776467170E-003  alpha =   0.38853626582337020     
 delta_qm =   0.917377E-03 delta_en =   0.568067E+00 tol =   0.100000E-03
 Iteration #          9
  pAp =    5.1029409547328054E-004  rzold =    1.8859242411649985E-004  alpha =   0.36957594804538496     
 delta_qm =   0.975746E-03 delta_en =   0.642655E+00 tol =   0.100000E-03
 Iteration #         10
  pAp =    8.0882715872886932E-005  rzold =    4.9877453998012934E-005  alpha =   0.61666393690833754     
 delta_qm =   0.101754E-02 delta_en =   0.698882E+00 tol =   0.100000E-03
 Iteration #         11
  pAp =    5.7271193403535179E-005  rzold =    6.3903459006230419E-005  alpha =    1.1158045643638683     
 delta_qm =   0.131172E-02 delta_en =   0.116141E+01 tol =   0.100000E-03
 Iteration #         12
  pAp =    3.8764769003159738E-005  rzold =    1.5004131263154780E-004  alpha =    3.8705586667965917     
 delta_qm =   0.478095E-02 delta_en =   0.154288E+02 tol =   0.100000E-03
 Iteration #         13
  pAp =   0.15201055622597198       rzold =    8.6794717339392664E-003  alpha =    5.7097822344895299E-002
 delta_qm =   0.632829E-02 delta_en =   0.270319E+02 tol =   0.100000E-03
 Iteration #         14
  pAp =   -6.0720704616648554E-003  rzold =    4.2484368122695506E-003  alpha =  -0.69966856265773691     
 delta_qm =   0.667104E-02 delta_en =   0.300394E+02 tol =   0.100000E-03
 Iteration #         15
  pAp =    1.3531192312604070E-002  rzold =    2.9853662399240747E-003  alpha =   0.22062846872283812     
 delta_qm =   0.338307E-02 delta_en =   0.772548E+01 tol =   0.100000E-03
 Iteration #         16
  pAp =    1.3154357122061157E-003  rzold =    6.2678145722108248E-004  alpha =   0.47648201383396233     
 delta_qm =   0.153570E-02 delta_en =   0.159190E+01 tol =   0.100000E-03
 Iteration #         17
  pAp =    2.6905122050576314E-004  rzold =    1.9445211092716040E-004  alpha =   0.72273268473426300     
 delta_qm =   0.740174E-03 delta_en =   0.369804E+00 tol =   0.100000E-03
 Iteration #         18
  pAp =    1.0070996726351629E-004  rzold =    5.9415956897678871E-005  alpha =   0.58997096823804851     
 delta_qm =   0.392340E-03 delta_en =   0.103903E+00 tol =   0.100000E-03
 Iteration #         19
  pAp =    2.3766362117151903E-005  rzold =    1.1814531858514535E-005  alpha =   0.49711149734557508     
 delta_qm =   0.269965E-03 delta_en =   0.491948E-01 tol =   0.100000E-03
 Iteration #         20
  pAp =    6.4956820152318109E-006  rzold =    4.3635579679424823E-006  alpha =   0.67176286611787916     
 delta_qm =   0.165849E-03 delta_en =   0.185665E-01 tol =   0.100000E-03
 Iteration #         21
  pAp =    2.3240770892378512E-006  rzold =    1.5058052876263100E-006  alpha =   0.64791537879671535     
 delta_qm =   0.187754E-03 delta_en =   0.237949E-01 tol =   0.100000E-03
 Iteration #         22
  pAp =    3.2176700302863302E-006  rzold =   -6.7312511273415143E-008  alpha =   -2.0919643916198959E-002
 delta_qm =   0.178213E-03 delta_en =   0.214380E-01 tol =   0.100000E-03
 Iteration #         23
  pAp =    2.1141591669147138E-007  rzold =    7.3397509911652057E-008  alpha =   0.34717116412178323     
 delta_qm =   0.167031E-03 delta_en =   0.188321E-01 tol =   0.100000E-03
 Iteration #         24
  pAp =    2.1595293112662360E-006  rzold =    6.9697542386918609E-007  alpha =   0.32274413698997950     
 delta_qm =   0.101002E-03 delta_en =   0.688595E-02 tol =   0.100000E-03
 Iteration #         25
  pAp =    1.9906325926993402E-006  rzold =    7.5541208128222396E-007  alpha =   0.37948342856070144     
 delta_qm =   0.493993E-04 delta_en =   0.164720E-02 tol =   0.100000E-03
 Iteration #         26
  pAp =    3.4129216496505272E-007  rzold =    1.9840587712496731E-007  alpha =   0.58133733349924244     
 delta_qm =   0.332189E-04 delta_en =   0.744859E-03 tol =   0.100000E-03
 Iteration #         27
  pAp =    6.5711904760620587E-008  rzold =    5.4527075563407561E-008  alpha =   0.82978991039815664     
 delta_qm =   0.167629E-04 delta_en =   0.189671E-03 tol =   0.100000E-03
 Iteration #         28
  pAp =    3.0999903876465111E-008  rzold =    2.0343030752686892E-008  alpha =   0.65622883328135628     
 delta_qm =   0.994432E-05 delta_en =   0.667504E-04 tol =   0.100000E-03
 Charges are converged, EXIT

%%%% ELECTRONS %%%%%%%%%%%%%%%%%%%%%%%%%%%%%%%%%%%%%%%%%%%%%%%%%%%%%%%%%%%%%%%%%
 number of electrons        =         90
 total electronic charge    =     90.0000000
 number of spin components  =  1

%%%% BOUNDARY %%%%%%%%%%%%%%%%%%%%%%%%%%%%%%%%%%%%%%%%%%%%%%%%%%%%%%%%%%%%%%%%%%
 boundary mode              = full                 
 boundary is built as a function of a smooth density
 function type              =  2 
 using the modified SCCS function with parameters 
 rhomax                     =      0.0050000 
 rhomin                     =      0.0001000 
 volume of the QM region    =   1624.7796566 
 surface of the QM region   =    288.0401261 

%%%% DIELECTRIC %%%%%%%%%%%%%%%%%%%%%%%%%%%%%%%%%%%%%%%%%%%%%%%%%%%%%%%%%%%%%%%%%
 dielectric build on homogeneous background
 environment bulk permitt.  =    100.0000000 
 dielectric flags
 need gradient              =  F 
 need factor depend. sqrt   =  T 
 need gradient of logarithm =  T 

%%%% COMPUTE ELECTROSTATIC POTENTIAL %%%%%%%%%%%%%%%%%%%%%%%%%%%%%%%%%%%%%%%%%%%
 Warning: bad guess with residual norm =   0.729794E+04, reset to no guess
 Iteration #          1
  pAp =    1277.6724704130411       rzold =    1274.6143555206233       alpha =   0.99760649543350566     
 delta_qm =   0.166633E+00 delta_en =   0.187425E+05 tol =   0.100000E-03
 Iteration #          2
  pAp =    3109.6085462772271       rzold =    95.138898655669252       alpha =    3.0595136731781884E-002
 delta_qm =   0.152289E-01 delta_en =   0.156545E+03 tol =   0.100000E-03
 Iteration #          3
  pAp =    1.6263238194670691       rzold =   0.23822889873174485       alpha =   0.14648306559871344     
 delta_qm =   0.124220E-01 delta_en =   0.104157E+03 tol =   0.100000E-03
 Iteration #          4
  pAp =    4.7337304662878549E-003  rzold =    8.6811805054895219E-003  alpha =    1.8338983529616164     
 delta_qm =   0.363086E-01 delta_en =   0.889861E+03 tol =   0.100000E-03
 Iteration #          5
  pAp =   -1.0664928765164530       rzold =   0.14568323783193582       alpha =  -0.13660029151604777     
 delta_qm =   0.647305E-02 delta_en =   0.282828E+02 tol =   0.100000E-03
 Iteration #          6
  pAp =    5.1819201662877373E-002  rzold =   -1.0443021646307185E-002  alpha =  -0.20152803036694475     
 delta_qm =   0.265721E-02 delta_en =   0.476601E+01 tol =   0.100000E-03
 Iteration #          7
  pAp =    1.2411180113446500E-002  rzold =    5.3635895101304043E-003  alpha =   0.43215789804866284     
 delta_qm =   0.155204E-02 delta_en =   0.162596E+01 tol =   0.100000E-03
 Iteration #          8
  pAp =    1.5826045306282083E-003  rzold =    8.3437894948137534E-004  alpha =   0.52721885558495907     
 delta_qm =   0.207498E-02 delta_en =   0.290624E+01 tol =   0.100000E-03
 Iteration #          9
  pAp =    5.7108202387131692E-004  rzold =    3.4197875585960326E-004  alpha =   0.59882598569879353     
 delta_qm =   0.234304E-02 delta_en =   0.370563E+01 tol =   0.100000E-03
 Iteration #         10
  pAp =    2.5583166924847211E-004  rzold =    4.7974662358809270E-004  alpha =    1.8752432996172457     
 delta_qm =   0.242604E-02 delta_en =   0.397284E+01 tol =   0.100000E-03
 Iteration #         11
  pAp =    7.3207161400640056E-004  rzold =    1.6662729808481875E-003  alpha =    2.2761065297002747     
 delta_qm =   0.325495E-02 delta_en =   0.715142E+01 tol =   0.100000E-03
 Iteration #         12
  pAp =    2.6362039785887394E-002  rzold =    4.3114294573873019E-003  alpha =   0.16354688379217813     
 delta_qm =   0.339513E-02 delta_en =   0.778067E+01 tol =   0.100000E-03
 Iteration #         13
  pAp =   0.11424807069613735       rzold =    1.3872735323686203E-002  alpha =   0.12142642969073114     
 delta_qm =   0.299885E-02 delta_en =   0.607036E+01 tol =   0.100000E-03
 Iteration #         14
  pAp =    3.3868346465512791E-003  rzold =    1.5560986967619163E-003  alpha =   0.45945517250050838     
 delta_qm =   0.225660E-02 delta_en =   0.343727E+01 tol =   0.100000E-03
 Iteration #         15
  pAp =    1.6464347548889977E-003  rzold =    6.2137969058652593E-004  alpha =   0.37740924062819559     
 delta_qm =   0.176778E-02 delta_en =   0.210940E+01 tol =   0.100000E-03
 Iteration #         16
  pAp =    3.2756132394036154E-004  rzold =    2.7564299711210549E-004  alpha =   0.84150043660921114     
 delta_qm =   0.931561E-03 delta_en =   0.585769E+00 tol =   0.100000E-03
 Iteration #         17
  pAp =    2.8076304319840249E-004  rzold =    1.7560018990041854E-004  alpha =   0.62543911727132073     
 delta_qm =   0.531347E-03 delta_en =   0.190573E+00 tol =   0.100000E-03
 Iteration #         18
  pAp =    1.0701481251978120E-004  rzold =    6.1534780437204348E-005  alpha =   0.57501180433157262     
 delta_qm =   0.269085E-03 delta_en =   0.488747E-01 tol =   0.100000E-03
 Iteration #         19
  pAp =    1.1777772438235039E-005  rzold =    6.6251988270963210E-006  alpha =   0.56251713656722180     
 delta_qm =   0.141118E-03 delta_en =   0.134422E-01 tol =   0.100000E-03
 Iteration #         20
  pAp =    2.0373276098285728E-006  rzold =    1.4685683112664367E-006  alpha =   0.72083071185100500     
 delta_qm =   0.755129E-04 delta_en =   0.384899E-02 tol =   0.100000E-03
 Iteration #         21
  pAp =    4.9840081371948646E-007  rzold =    4.4609304778161027E-007  alpha =   0.89504879507015322     
 delta_qm =   0.321915E-04 delta_en =   0.699496E-03 tol =   0.100000E-03
 Iteration #         22
  pAp =    6.4395925489728281E-006  rzold =    2.9732847366023836E-007  alpha =    4.6171938891951307E-002
 delta_qm =   0.275950E-04 delta_en =   0.514002E-03 tol =   0.100000E-03
 Iteration #         23
  pAp =    2.9145346732140740E-007  rzold =    1.3713034365895977E-007  alpha =   0.47050510299037190     
 delta_qm =   0.165240E-04 delta_en =   0.184303E-03 tol =   0.100000E-03
 Iteration #         24
  pAp =    3.3435412546524709E-008  rzold =    1.9288803981404287E-008  alpha =   0.57689744233196771     
 delta_qm =   0.863961E-05 delta_en =   0.503839E-04 tol =   0.100000E-03
 Charges are converged, EXIT

%%%% ELECTRONS %%%%%%%%%%%%%%%%%%%%%%%%%%%%%%%%%%%%%%%%%%%%%%%%%%%%%%%%%%%%%%%%%
 number of electrons        =         90
 total electronic charge    =     90.0000000
 number of spin components  =  1

%%%% BOUNDARY %%%%%%%%%%%%%%%%%%%%%%%%%%%%%%%%%%%%%%%%%%%%%%%%%%%%%%%%%%%%%%%%%%
 boundary mode              = full                 
 boundary is built as a function of a smooth density
 function type              =  2 
 using the modified SCCS function with parameters 
 rhomax                     =      0.0050000 
 rhomin                     =      0.0001000 
 volume of the QM region    =   1617.0052584 
 surface of the QM region   =    270.7465693 

%%%% DIELECTRIC %%%%%%%%%%%%%%%%%%%%%%%%%%%%%%%%%%%%%%%%%%%%%%%%%%%%%%%%%%%%%%%%%
 dielectric build on homogeneous background
 environment bulk permitt.  =    100.0000000 
 dielectric flags
 need gradient              =  F 
 need factor depend. sqrt   =  T 
 need gradient of logarithm =  T 

%%%% COMPUTE ELECTROSTATIC POTENTIAL %%%%%%%%%%%%%%%%%%%%%%%%%%%%%%%%%%%%%%%%%%%
 Warning: bad guess with residual norm =   0.193963E+04, reset to no guess
 Iteration #          1
  pAp =    1273.0251982567852       rzold =    1272.2478537765551       alpha =   0.99938937227535274     
 delta_qm =   0.710141E-01 delta_en =   0.340403E+04 tol =   0.100000E-03
 Iteration #          2
  pAp =    688.66095565630621       rzold =    22.215785302704194       alpha =    3.2259394292990164E-002
 delta_qm =   0.150342E-01 delta_en =   0.152568E+03 tol =   0.100000E-03
 Iteration #          3
  pAp =    1.1870666314127003       rzold =   0.18174056040560699       alpha =   0.15310055526480582     
 delta_qm =   0.150239E-01 delta_en =   0.152360E+03 tol =   0.100000E-03
 Iteration #          4
  pAp =   -1.7116906461745837E-002  rzold =    1.6489341153929277E-002  alpha =  -0.96333652291556937     
 delta_qm =   0.808151E-02 delta_en =   0.440848E+02 tol =   0.100000E-03
 Iteration #          5
  pAp =   0.27185642013934957       rzold =    1.4862937655786902E-002  alpha =    5.4672012704972649E-002
 delta_qm =   0.791279E-02 delta_en =   0.422633E+02 tol =   0.100000E-03
 Iteration #          6
  pAp =    1.1559095003059299E-002  rzold =   -1.2415804131921946E-002  alpha =   -1.0741155885158746     
 delta_qm =   0.171829E-02 delta_en =   0.199295E+01 tol =   0.100000E-03
 Iteration #          7
  pAp =    1.0010640136630417E-002  rzold =    3.3645239897712458E-003  alpha =   0.33609478952898864     
 delta_qm =   0.100156E-02 delta_en =   0.677109E+00 tol =   0.100000E-03
 Iteration #          8
  pAp =    8.1002970347519940E-004  rzold =    4.0567748155023129E-004  alpha =   0.50081803149907811     
 delta_qm =   0.963400E-03 delta_en =   0.626495E+00 tol =   0.100000E-03
 Iteration #          9
  pAp =    2.3501637334264716E-004  rzold =    1.2786020954871685E-004  alpha =   0.54404809218249794     
 delta_qm =   0.106247E-02 delta_en =   0.761975E+00 tol =   0.100000E-03
 Iteration #         10
  pAp =    1.0079297049833355E-004  rzold =    1.4831043024143920E-004  alpha =    1.4714362470733144     
 delta_qm =   0.121420E-02 delta_en =   0.995138E+00 tol =   0.100000E-03
 Iteration #         11
  pAp =    1.0158656799006037E-004  rzold =    4.6429529593065063E-004  alpha =    4.5704398240531088     
 delta_qm =   0.308892E-02 delta_en =   0.644048E+01 tol =   0.100000E-03
 Iteration #         12
  pAp =    2.1588080328207781E-003  rzold =    4.5677646084720559E-003  alpha =    2.1158734537890553     
 delta_qm =   0.101628E-01 delta_en =   0.697151E+02 tol =   0.100000E-03
 Iteration #         13
  pAp =    6.3521259928901577E-002  rzold =    2.8413537773781992E-002  alpha =   0.44730752830760684     
 delta_qm =   0.187221E-01 delta_en =   0.236598E+03 tol =   0.100000E-03
 Iteration #         14
  pAp =    1.3410270434534053       rzold =   0.30018184400183845       alpha =   0.22384473562055232     
 delta_qm =   0.529957E-01 delta_en =   0.189577E+04 tol =   0.100000E-03
 Iteration #         15
  pAp =   -1.3446112715742231       rzold =   0.49326732563309028       alpha =  -0.36684753137283344     
 delta_qm =   0.375418E-01 delta_en =   0.951338E+03 tol =   0.100000E-03
 Iteration #         16
  pAp =   0.43021421047165209       rzold =   0.14797148105166996       alpha =   0.34394838071351941     
 delta_qm =   0.891210E-02 delta_en =   0.536122E+02 tol =   0.100000E-03
 Iteration #         17
  pAp =    3.9865769483200496E-002  rzold =    1.9454229501058778E-002  alpha =   0.48799332743989360     
 delta_qm =   0.311139E-02 delta_en =   0.653450E+01 tol =   0.100000E-03
 Iteration #         18
  pAp =    5.8483295082772712E-003  rzold =    3.3549344304217282E-003  alpha =   0.57365687512535235     
 delta_qm =   0.163565E-02 delta_en =   0.180586E+01 tol =   0.100000E-03
 Iteration #         19
  pAp =    6.0012398744912251E-004  rzold =    3.3268844155033637E-004  alpha =   0.55436617850330661     
 delta_qm =   0.955308E-03 delta_en =   0.616014E+00 tol =   0.100000E-03
 Iteration #         20
  pAp =    8.5734864235057030E-005  rzold =    6.4365481605041394E-005  alpha =   0.75075037651628207     
 delta_qm =   0.451409E-03 delta_en =   0.137545E+00 tol =   0.100000E-03
 Iteration #         21
  pAp =    2.3033006339416301E-005  rzold =    1.9644037423277785E-005  alpha =   0.85286467314781278     
 delta_qm =   0.167552E-03 delta_en =   0.189498E-01 tol =   0.100000E-03
 Iteration #         22
  pAp =    8.5095593707397634E-006  rzold =    5.0749295793917139E-006  alpha =   0.59637983099829217     
 delta_qm =   0.854929E-04 delta_en =   0.493360E-02 tol =   0.100000E-03
 Iteration #         23
  pAp =    3.4310163970906258E-005  rzold =    2.1316693426126388E-006  alpha =    6.2129383713240630E-002
 delta_qm =   0.786682E-04 delta_en =   0.417737E-02 tol =   0.100000E-03
 Iteration #         24
  pAp =    6.5215949737103886E-006  rzold =    1.7271688820986145E-006  alpha =   0.26483841591836255     
 delta_qm =   0.448431E-04 delta_en =   0.135736E-02 tol =   0.100000E-03
 Iteration #         25
  pAp =    2.1462479588885245E-007  rzold =    1.5720076911965700E-007  alpha =   0.73244458296918502     
 delta_qm =   0.204046E-04 delta_en =   0.281034E-03 tol =   0.100000E-03
 Iteration #         26
  pAp =    5.8561555481471651E-008  rzold =    4.1118329203260478E-008  alpha =   0.70213861064995020     
 delta_qm =   0.144381E-04 delta_en =   0.140710E-03 tol =   0.100000E-03
 Iteration #         27
  pAp =    6.4373392447356291E-008  rzold =    2.0599692286131350E-008  alpha =   0.32000321100022039     
 delta_qm =   0.119363E-04 delta_en =   0.961711E-04 tol =   0.100000E-03
 Charges are converged, EXIT

%%%% ELECTRONS %%%%%%%%%%%%%%%%%%%%%%%%%%%%%%%%%%%%%%%%%%%%%%%%%%%%%%%%%%%%%%%%%
 number of electrons        =         90
 total electronic charge    =     90.0000000
 number of spin components  =  1

%%%% BOUNDARY %%%%%%%%%%%%%%%%%%%%%%%%%%%%%%%%%%%%%%%%%%%%%%%%%%%%%%%%%%%%%%%%%%
 boundary mode              = full                 
 boundary is built as a function of a smooth density
 function type              =  2 
 using the modified SCCS function with parameters 
 rhomax                     =      0.0050000 
 rhomin                     =      0.0001000 
 volume of the QM region    =   1597.1289927 
 surface of the QM region   =    287.8535479 

%%%% DIELECTRIC %%%%%%%%%%%%%%%%%%%%%%%%%%%%%%%%%%%%%%%%%%%%%%%%%%%%%%%%%%%%%%%%%
 dielectric build on homogeneous background
 environment bulk permitt.  =    100.0000000 
 dielectric flags
 need gradient              =  F 
 need factor depend. sqrt   =  T 
 need gradient of logarithm =  T 

%%%% COMPUTE ELECTROSTATIC POTENTIAL %%%%%%%%%%%%%%%%%%%%%%%%%%%%%%%%%%%%%%%%%%%
 Warning: bad guess with residual norm =   0.110137E+05, reset to no guess
 Iteration #          1
  pAp =    1272.8082798300577       rzold =    1270.5444961256565       alpha =   0.99822142600714103     
 delta_qm =   0.145655E+00 delta_en =   0.143204E+05 tol =   0.100000E-03
 Iteration #          2
  pAp =    2554.3233969355711       rzold =    73.771612962157874       alpha =    2.8881077881783443E-002
 delta_qm =   0.177628E-01 delta_en =   0.212974E+03 tol =   0.100000E-03
 Iteration #          3
  pAp =    2.7145460743979810       rzold =   0.36470464764657795       alpha =   0.13435198285498262     
 delta_qm =   0.120471E-01 delta_en =   0.979645E+02 tol =   0.100000E-03
 Iteration #          4
  pAp =    9.2629033281682559E-003  rzold =    8.0999010386567424E-003  alpha =   0.87444516602317846     
 delta_qm =   0.256418E-01 delta_en =   0.443814E+03 tol =   0.100000E-03
 Iteration #          5
  pAp =  -0.17628976284732609       rzold =    3.6526043656770417E-002  alpha =  -0.20719322022347614     
 delta_qm =   0.547782E-02 delta_en =   0.202544E+02 tol =   0.100000E-03
 Iteration #          6
  pAp =    1.4188404764422444E-002  rzold =   -1.0880170623434196E-003  alpha =   -7.6683537043687425E-002
 delta_qm =   0.429136E-02 delta_en =   0.124306E+02 tol =   0.100000E-03
 Iteration #          7
  pAp =    7.8387191206299588E-004  rzold =    1.1086907152789087E-003  alpha =    1.4143773979106535     
 delta_qm =   0.157505E-02 delta_en =   0.167452E+01 tol =   0.100000E-03
 Iteration #          8
  pAp =    2.2009714267383048E-003  rzold =    9.7986390886783351E-004  alpha =   0.44519610612116284     
 delta_qm =   0.167838E-02 delta_en =   0.190144E+01 tol =   0.100000E-03
 Iteration #          9
  pAp =    6.0327903813369094E-004  rzold =    3.0514605521015780E-004  alpha =   0.50581246143436409     
 delta_qm =   0.191377E-02 delta_en =   0.247220E+01 tol =   0.100000E-03
 Iteration #         10
  pAp =    2.5364176712272914E-004  rzold =    2.9083024541897757E-004  alpha =    1.1466181170321768     
 delta_qm =   0.212169E-02 delta_en =   0.303855E+01 tol =   0.100000E-03
 Iteration #         11
  pAp =    2.3145943231358865E-004  rzold =    7.4116380446379601E-004  alpha =    3.2021326461202220     
 delta_qm =   0.354102E-02 delta_en =   0.846369E+01 tol =   0.100000E-03
 Iteration #         12
  pAp =    1.8071410580663933E-002  rzold =    5.5753331953324152E-003  alpha =   0.30851676854146159     
 delta_qm =   0.423940E-02 delta_en =   0.121315E+02 tol =   0.100000E-03
 Iteration #         13
  pAp =   0.21227327159023479       rzold =    4.6583603137137962E-002  alpha =   0.21945110087652198     
 delta_qm =   0.112577E-01 delta_en =   0.855461E+02 tol =   0.100000E-03
 Iteration #         14
  pAp =    1.8238275056207537E-002  rzold =    1.9104889922218843E-002  alpha =    1.0475162735149313     
 delta_qm =   0.176265E-01 delta_en =   0.209718E+03 tol =   0.100000E-03
 Iteration #         15
  pAp =    8.0156336066113318E-002  rzold =    4.3162003302927986E-002  alpha =   0.53847275737912681     
 delta_qm =   0.218990E-01 delta_en =   0.323707E+03 tol =   0.100000E-03
 Iteration #         16
  pAp =    1.7561006415680428E-002  rzold =    4.2006365069328380E-002  alpha =    2.3920249258505142     
 delta_qm =   0.306595E-01 delta_en =   0.634504E+03 tol =   0.100000E-03
 Iteration #         17
  pAp =    3.8244084712205584E-002  rzold =   0.22838906201100448       alpha =    5.9718794090557541     
 delta_qm =   0.183557E+00 delta_en =   0.227429E+05 tol =   0.100000E-03
 Iteration #         18
  pAp =   -38.097595865395974       rzold =    9.1444836934345926       alpha =  -0.24002784127752591     
 delta_qm =   0.530656E-01 delta_en =   0.190077E+04 tol =   0.100000E-03
 Iteration #         19
  pAp =   0.85682600265054953       rzold =   0.33095434205187801       alpha =   0.38625618390208383     
 delta_qm =   0.263521E-01 delta_en =   0.468744E+03 tol =   0.100000E-03
 Iteration #         20
  pAp =    6.6747597246145984E-002  rzold =    4.4555453021536025E-002  alpha =   0.66752145185433864     
 delta_qm =   0.131624E-01 delta_en =   0.116944E+03 tol =   0.100000E-03
 Iteration #         21
  pAp =    1.3487575328612405E-002  rzold =    1.2055997462937635E-002  alpha =   0.89385950915596857     
 delta_qm =   0.553326E-02 delta_en =   0.206664E+02 tol =   0.100000E-03
 Iteration #         22
  pAp =    2.0788631064400674E-002  rzold =    4.9239728393932099E-003  alpha =   0.23685892659980040     
 delta_qm =   0.413926E-02 delta_en =   0.115651E+02 tol =   0.100000E-03
 Iteration #         23
  pAp =   0.29991897687766927       rzold =    2.0316275544426714E-002  alpha =    6.7739213289972317E-002
 delta_qm =   0.248979E-02 delta_en =   0.418436E+01 tol =   0.100000E-03
 Iteration #         24
  pAp =    1.4421498943955741E-003  rzold =    8.6714769157538081E-004  alpha =   0.60128818435951481     
 delta_qm =   0.171676E-02 delta_en =   0.198941E+01 tol =   0.100000E-03
 Iteration #         25
  pAp =    2.9021233127096225E-004  rzold =    1.7738586886553766E-004  alpha =   0.61122788300790010     
 delta_qm =   0.960270E-03 delta_en =   0.622429E+00 tol =   0.100000E-03
 Iteration #         26
  pAp =    7.3472474047184527E-004  rzold =    1.8167172161537379E-004  alpha =   0.24726501179026988     
 delta_qm =   0.873631E-03 delta_en =   0.515181E+00 tol =   0.100000E-03
 Iteration #         27
  pAp =    1.1362197523441292E-004  rzold =    6.5658363147264227E-005  alpha =   0.57786676399353898     
 delta_qm =   0.469684E-03 delta_en =   0.148907E+00 tol =   0.100000E-03
 Iteration #         28
  pAp =    3.8780098304695945E-005  rzold =    2.5614978730216974E-005  alpha =   0.66051866421172056     
 delta_qm =   0.291818E-03 delta_en =   0.574814E-01 tol =   0.100000E-03
 Iteration #         29
  pAp =    1.3007188824282730E-005  rzold =    7.4754259408609100E-006  alpha =   0.57471495507970649     
 delta_qm =   0.232281E-03 delta_en =   0.364191E-01 tol =   0.100000E-03
 Iteration #         30
  pAp =    2.7231899908169576E-005  rzold =   -7.4461096245096901E-006  alpha =  -0.27343335021130333     
 delta_qm =   0.352089E-03 delta_en =   0.836774E-01 tol =   0.100000E-03
 Iteration #         31
  pAp =   -4.6893976210676611E-006  rzold =    7.9617199923174722E-006  alpha =   -1.6978129464962672     
 delta_qm =   0.872196E-03 delta_en =   0.513490E+00 tol =   0.100000E-03
 Iteration #         32
  pAp =    1.8716459683381962E-004  rzold =    4.5003566787731470E-005  alpha =   0.24044914235403933     
 delta_qm =   0.266586E-03 delta_en =   0.479709E-01 tol =   0.100000E-03
 Iteration #         33
  pAp =    3.8192015372513466E-005  rzold =    5.9245615650511458E-006  alpha =   0.15512565931032307     
 delta_qm =   0.234988E-03 delta_en =   0.372731E-01 tol =   0.100000E-03
 Iteration #         34
  pAp =    1.8759616916825658E-004  rzold =    1.8154413672102448E-005  alpha =    9.6773904033294000E-002
 delta_qm =   0.137463E-03 delta_en =   0.127549E-01 tol =   0.100000E-03
 Iteration #         35
  pAp =    1.8706238346372707E-006  rzold =    1.3447436926744715E-006  alpha =   0.71887445662490890     
 delta_qm =   0.586050E-04 delta_en =   0.231832E-02 tol =   0.100000E-03
 Iteration #         36
  pAp =    3.6580868239853409E-007  rzold =    2.4460620282792574E-007  alpha =   0.66867249083343783     
 delta_qm =   0.313351E-04 delta_en =   0.662776E-03 tol =   0.100000E-03
 Iteration #         37
  pAp =    1.2476962274600151E-007  rzold =    7.4635977998463873E-008  alpha =   0.59819029949624281     
 delta_qm =   0.142409E-04 delta_en =   0.136893E-03 tol =   0.100000E-03
 Iteration #         38
  pAp =    3.0830080966450204E-008  rzold =    1.8589873602374315E-008  alpha =   0.60297842300849347     
 delta_qm =   0.646107E-05 delta_en =   0.281781E-04 tol =   0.100000E-03
 Charges are converged, EXIT

%%%% ELECTRONS %%%%%%%%%%%%%%%%%%%%%%%%%%%%%%%%%%%%%%%%%%%%%%%%%%%%%%%%%%%%%%%%%
 number of electrons        =         90
 total electronic charge    =     90.0000000
 number of spin components  =  1

%%%% BOUNDARY %%%%%%%%%%%%%%%%%%%%%%%%%%%%%%%%%%%%%%%%%%%%%%%%%%%%%%%%%%%%%%%%%%
 boundary mode              = full                 
 boundary is built as a function of a smooth density
 function type              =  2 
 using the modified SCCS function with parameters 
 rhomax                     =      0.0050000 
 rhomin                     =      0.0001000 
 volume of the QM region    =   1610.1078225 
 surface of the QM region   =    781.0526227 

%%%% DIELECTRIC %%%%%%%%%%%%%%%%%%%%%%%%%%%%%%%%%%%%%%%%%%%%%%%%%%%%%%%%%%%%%%%%%
 dielectric build on homogeneous background
 environment bulk permitt.  =    100.0000000 
 dielectric flags
 need gradient              =  F 
 need factor depend. sqrt   =  T 
 need gradient of logarithm =  T 

%%%% ELECTRONS %%%%%%%%%%%%%%%%%%%%%%%%%%%%%%%%%%%%%%%%%%%%%%%%%%%%%%%%%%%%%%%%%
 number of electrons        =         90
 total electronic charge    =     90.0000000
 number of spin components  =  1

%%%% BOUNDARY %%%%%%%%%%%%%%%%%%%%%%%%%%%%%%%%%%%%%%%%%%%%%%%%%%%%%%%%%%%%%%%%%%
 boundary mode              = full                 
 boundary is built as a function of a smooth density
 function type              =  2 
 using the modified SCCS function with parameters 
 rhomax                     =      0.0050000 
 rhomin                     =      0.0001000 
 volume of the QM region    =   1659.7251017 
 surface of the QM region   =   1270.4080859 

%%%% DIELECTRIC %%%%%%%%%%%%%%%%%%%%%%%%%%%%%%%%%%%%%%%%%%%%%%%%%%%%%%%%%%%%%%%%%
 dielectric build on homogeneous background
 environment bulk permitt.  =    100.0000000 
 dielectric flags
 need gradient              =  F 
 need factor depend. sqrt   =  T 
 need gradient of logarithm =  T 

%%%% ELECTRONS %%%%%%%%%%%%%%%%%%%%%%%%%%%%%%%%%%%%%%%%%%%%%%%%%%%%%%%%%%%%%%%%%
 number of electrons        =         90
 total electronic charge    =     90.0000000
 number of spin components  =  1

%%%% BOUNDARY %%%%%%%%%%%%%%%%%%%%%%%%%%%%%%%%%%%%%%%%%%%%%%%%%%%%%%%%%%%%%%%%%%
 boundary mode              = full                 
 boundary is built as a function of a smooth density
 function type              =  2 
 using the modified SCCS function with parameters 
 rhomax                     =      0.0050000 
 rhomin                     =      0.0001000 
 volume of the QM region    =   1778.9764778 
 surface of the QM region   =   1425.2403951 

%%%% DIELECTRIC %%%%%%%%%%%%%%%%%%%%%%%%%%%%%%%%%%%%%%%%%%%%%%%%%%%%%%%%%%%%%%%%%
 dielectric build on homogeneous background
 environment bulk permitt.  =    100.0000000 
 dielectric flags
 need gradient              =  F 
 need factor depend. sqrt   =  T 
 need gradient of logarithm =  T 

%%%% ELECTRONS %%%%%%%%%%%%%%%%%%%%%%%%%%%%%%%%%%%%%%%%%%%%%%%%%%%%%%%%%%%%%%%%%
 number of electrons        =         90
 total electronic charge    =     90.0000000
 number of spin components  =  1

%%%% BOUNDARY %%%%%%%%%%%%%%%%%%%%%%%%%%%%%%%%%%%%%%%%%%%%%%%%%%%%%%%%%%%%%%%%%%
 boundary mode              = full                 
 boundary is built as a function of a smooth density
 function type              =  2 
 using the modified SCCS function with parameters 
 rhomax                     =      0.0050000 
 rhomin                     =      0.0001000 
 volume of the QM region    =   1768.1585829 
 surface of the QM region   =   1620.4346749 

%%%% DIELECTRIC %%%%%%%%%%%%%%%%%%%%%%%%%%%%%%%%%%%%%%%%%%%%%%%%%%%%%%%%%%%%%%%%%
 dielectric build on homogeneous background
 environment bulk permitt.  =    100.0000000 
 dielectric flags
 need gradient              =  F 
 need factor depend. sqrt   =  T 
 need gradient of logarithm =  T 

%%%% ELECTRONS %%%%%%%%%%%%%%%%%%%%%%%%%%%%%%%%%%%%%%%%%%%%%%%%%%%%%%%%%%%%%%%%%
 number of electrons        =         90
 total electronic charge    =     90.0000000
 number of spin components  =  1

%%%% BOUNDARY %%%%%%%%%%%%%%%%%%%%%%%%%%%%%%%%%%%%%%%%%%%%%%%%%%%%%%%%%%%%%%%%%%
 boundary mode              = full                 
 boundary is built as a function of a smooth density
 function type              =  2 
 using the modified SCCS function with parameters 
 rhomax                     =      0.0050000 
 rhomin                     =      0.0001000 
 volume of the QM region    =   1959.5052008 
 surface of the QM region   =   1928.9960906 

%%%% DIELECTRIC %%%%%%%%%%%%%%%%%%%%%%%%%%%%%%%%%%%%%%%%%%%%%%%%%%%%%%%%%%%%%%%%%
 dielectric build on homogeneous background
 environment bulk permitt.  =    100.0000000 
 dielectric flags
 need gradient              =  F 
 need factor depend. sqrt   =  T 
 need gradient of logarithm =  T 

%%%% ELECTRONS %%%%%%%%%%%%%%%%%%%%%%%%%%%%%%%%%%%%%%%%%%%%%%%%%%%%%%%%%%%%%%%%%
 number of electrons        =         90
 total electronic charge    =     90.0000000
 number of spin components  =  1

%%%% BOUNDARY %%%%%%%%%%%%%%%%%%%%%%%%%%%%%%%%%%%%%%%%%%%%%%%%%%%%%%%%%%%%%%%%%%
 boundary mode              = full                 
 boundary is built as a function of a smooth density
 function type              =  2 
 using the modified SCCS function with parameters 
 rhomax                     =      0.0050000 
 rhomin                     =      0.0001000 
 volume of the QM region    =   2070.0850519 
 surface of the QM region   =   2033.7326842 

%%%% DIELECTRIC %%%%%%%%%%%%%%%%%%%%%%%%%%%%%%%%%%%%%%%%%%%%%%%%%%%%%%%%%%%%%%%%%
 dielectric build on homogeneous background
 environment bulk permitt.  =    100.0000000 
 dielectric flags
 need gradient              =  F 
 need factor depend. sqrt   =  T 
 need gradient of logarithm =  T 

%%%% ELECTRONS %%%%%%%%%%%%%%%%%%%%%%%%%%%%%%%%%%%%%%%%%%%%%%%%%%%%%%%%%%%%%%%%%
 number of electrons        =         90
 total electronic charge    =     90.0000000
 number of spin components  =  1

%%%% BOUNDARY %%%%%%%%%%%%%%%%%%%%%%%%%%%%%%%%%%%%%%%%%%%%%%%%%%%%%%%%%%%%%%%%%%
 boundary mode              = full                 
 boundary is built as a function of a smooth density
 function type              =  2 
 using the modified SCCS function with parameters 
 rhomax                     =      0.0050000 
 rhomin                     =      0.0001000 
 volume of the QM region    =   2072.9566756 
 surface of the QM region   =   2006.1594533 

%%%% DIELECTRIC %%%%%%%%%%%%%%%%%%%%%%%%%%%%%%%%%%%%%%%%%%%%%%%%%%%%%%%%%%%%%%%%%
 dielectric build on homogeneous background
 environment bulk permitt.  =    100.0000000 
 dielectric flags
 need gradient              =  F 
 need factor depend. sqrt   =  T 
 need gradient of logarithm =  T 

%%%% ELECTRONS %%%%%%%%%%%%%%%%%%%%%%%%%%%%%%%%%%%%%%%%%%%%%%%%%%%%%%%%%%%%%%%%%
 number of electrons        =         90
 total electronic charge    =     90.0000000
 number of spin components  =  1

%%%% BOUNDARY %%%%%%%%%%%%%%%%%%%%%%%%%%%%%%%%%%%%%%%%%%%%%%%%%%%%%%%%%%%%%%%%%%
 boundary mode              = full                 
 boundary is built as a function of a smooth density
 function type              =  2 
 using the modified SCCS function with parameters 
 rhomax                     =      0.0050000 
 rhomin                     =      0.0001000 
 volume of the QM region    =   1928.1588346 
 surface of the QM region   =   1419.3856035 

%%%% DIELECTRIC %%%%%%%%%%%%%%%%%%%%%%%%%%%%%%%%%%%%%%%%%%%%%%%%%%%%%%%%%%%%%%%%%
 dielectric build on homogeneous background
 environment bulk permitt.  =    100.0000000 
 dielectric flags
 need gradient              =  F 
 need factor depend. sqrt   =  T 
 need gradient of logarithm =  T 

%%%% ELECTRONS %%%%%%%%%%%%%%%%%%%%%%%%%%%%%%%%%%%%%%%%%%%%%%%%%%%%%%%%%%%%%%%%%
 number of electrons        =         90
 total electronic charge    =     90.0000000
 number of spin components  =  1

%%%% BOUNDARY %%%%%%%%%%%%%%%%%%%%%%%%%%%%%%%%%%%%%%%%%%%%%%%%%%%%%%%%%%%%%%%%%%
 boundary mode              = full                 
 boundary is built as a function of a smooth density
 function type              =  2 
 using the modified SCCS function with parameters 
 rhomax                     =      0.0050000 
 rhomin                     =      0.0001000 
 volume of the QM region    =   2231.6014595 
 surface of the QM region   =   7906.0432058 

%%%% DIELECTRIC %%%%%%%%%%%%%%%%%%%%%%%%%%%%%%%%%%%%%%%%%%%%%%%%%%%%%%%%%%%%%%%%%
 dielectric build on homogeneous background
 environment bulk permitt.  =    100.0000000 
 dielectric flags
 need gradient              =  F 
 need factor depend. sqrt   =  T 
 need gradient of logarithm =  T 

%%%% ELECTRONS %%%%%%%%%%%%%%%%%%%%%%%%%%%%%%%%%%%%%%%%%%%%%%%%%%%%%%%%%%%%%%%%%
 number of electrons        =         90
 total electronic charge    =     90.0000000
 number of spin components  =  1

%%%% BOUNDARY %%%%%%%%%%%%%%%%%%%%%%%%%%%%%%%%%%%%%%%%%%%%%%%%%%%%%%%%%%%%%%%%%%
 boundary mode              = full                 
 boundary is built as a function of a smooth density
 function type              =  2 
 using the modified SCCS function with parameters 
 rhomax                     =      0.0050000 
 rhomin                     =      0.0001000 
 volume of the QM region    =   2430.9212729 
 surface of the QM region   =   5834.1389534 

%%%% DIELECTRIC %%%%%%%%%%%%%%%%%%%%%%%%%%%%%%%%%%%%%%%%%%%%%%%%%%%%%%%%%%%%%%%%%
 dielectric build on homogeneous background
 environment bulk permitt.  =    100.0000000 
 dielectric flags
 need gradient              =  F 
 need factor depend. sqrt   =  T 
 need gradient of logarithm =  T 

%%%% ELECTRONS %%%%%%%%%%%%%%%%%%%%%%%%%%%%%%%%%%%%%%%%%%%%%%%%%%%%%%%%%%%%%%%%%
 number of electrons        =         90
 total electronic charge    =     90.0000000
 number of spin components  =  1

%%%% BOUNDARY %%%%%%%%%%%%%%%%%%%%%%%%%%%%%%%%%%%%%%%%%%%%%%%%%%%%%%%%%%%%%%%%%%
 boundary mode              = full                 
 boundary is built as a function of a smooth density
 function type              =  2 
 using the modified SCCS function with parameters 
 rhomax                     =      0.0050000 
 rhomin                     =      0.0001000 
 volume of the QM region    =   2651.6766714 
 surface of the QM region   =   2511.3518709 

%%%% DIELECTRIC %%%%%%%%%%%%%%%%%%%%%%%%%%%%%%%%%%%%%%%%%%%%%%%%%%%%%%%%%%%%%%%%%
 dielectric build on homogeneous background
 environment bulk permitt.  =    100.0000000 
 dielectric flags
 need gradient              =  F 
 need factor depend. sqrt   =  T 
 need gradient of logarithm =  T 

%%%% ELECTRONS %%%%%%%%%%%%%%%%%%%%%%%%%%%%%%%%%%%%%%%%%%%%%%%%%%%%%%%%%%%%%%%%%
 number of electrons        =         90
 total electronic charge    =     90.0000000
 number of spin components  =  1

%%%% BOUNDARY %%%%%%%%%%%%%%%%%%%%%%%%%%%%%%%%%%%%%%%%%%%%%%%%%%%%%%%%%%%%%%%%%%
 boundary mode              = full                 
 boundary is built as a function of a smooth density
 function type              =  2 
 using the modified SCCS function with parameters 
 rhomax                     =      0.0050000 
 rhomin                     =      0.0001000 
 volume of the QM region    =   2666.8051622 
 surface of the QM region   =   2610.2424754 

%%%% DIELECTRIC %%%%%%%%%%%%%%%%%%%%%%%%%%%%%%%%%%%%%%%%%%%%%%%%%%%%%%%%%%%%%%%%%
[...]
 delta_qm =   0.754217E+02 delta_en =   0.383969E+10 tol =   0.100000E-03
 Iteration #        104
  pAp =   -9094738996.7751770       rzold =    490709.05995212228       alpha =   -5.3955265799944169E-005
 delta_qm =   0.455980E+02 delta_en =   0.140344E+10 tol =   0.100000E-03
 Iteration #        105
  pAp =    22827573.276656959       rzold =    21053.042350433792       alpha =    9.2226370693385227E-004
 delta_qm =   0.438538E+02 delta_en =   0.129813E+10 tol =   0.100000E-03
 Iteration #        106
  pAp =   -15940990.124141853       rzold =    18581.893697274754       alpha =   -1.1656674743893969E-003
 delta_qm =   0.576593E+02 delta_en =   0.224410E+10 tol =   0.100000E-03
 Iteration #        107
  pAp =    68875446.420191303       rzold =    33769.449107428940       alpha =    4.9029735359405518E-004
 delta_qm =   0.319015E+02 delta_en =   0.686952E+09 tol =   0.100000E-03
 Iteration #        108
  pAp =    9298647.4410609510       rzold =    12290.062144140118       alpha =    1.3217042824819536E-003
 delta_qm =   0.750603E+02 delta_en =   0.380298E+10 tol =   0.100000E-03
 Iteration #        109
  pAp =    16756711130.954376       rzold =   -362315.99492621742       alpha =   -2.1622142441598668E-005
 delta_qm =   0.960955E+02 delta_en =   0.623319E+10 tol =   0.100000E-03
 Iteration #        110
  pAp =    424463100.74977511       rzold =    138236.14561196277       alpha =    3.2567293922082107E-004
 delta_qm =   0.249517E+03 delta_en =   0.420246E+11 tol =   0.100000E-03
 Iteration #        111
  pAp =   -15925587569.458483       rzold =    1101505.2513427520       alpha =   -6.9165752694436163E-005
 delta_qm =   0.339948E+02 delta_en =   0.780060E+09 tol =   0.100000E-03
 Iteration #        112
  pAp =    9897534.5741634239       rzold =    12184.361104445339       alpha =    1.2310501179002152E-003
 delta_qm =   0.400062E+02 delta_en =   0.108033E+10 tol =   0.100000E-03
 Iteration #        113
  pAp =    10904442.328348840       rzold =    16075.767627242820       alpha =    1.4742402356010284E-003
 delta_qm =   0.157393E+03 delta_en =   0.167215E+11 tol =   0.100000E-03
 Iteration #        114
  pAp =   -270363082042.14752       rzold =    3347519.1047040257       alpha =   -1.2381568812646445E-005
 delta_qm =   0.104322E+03 delta_en =   0.734607E+10 tol =   0.100000E-03
 Iteration #        115
  pAp =   -477409665.60939455       rzold =    75287.139742399944       alpha =   -1.5769923645408160E-004
 delta_qm =   0.100264E+03 delta_en =   0.678575E+10 tol =   0.100000E-03
 Iteration #        116
  pAp =    430505986.69994164       rzold =    95160.370841610231       alpha =    2.2104308367710588E-004
 delta_qm =   0.372474E+02 delta_en =   0.936472E+09 tol =   0.100000E-03
 Iteration #        117
  pAp =   -8584452.2776529659       rzold =    18275.052420541942       alpha =   -2.1288547981232926E-003
 delta_qm =   0.192719E+03 delta_en =   0.250699E+11 tol =   0.100000E-03
 Iteration #        118
  pAp =    3853926569.3269653       rzold =    402268.89012114087       alpha =    1.0437897113109540E-004
 delta_qm =   0.309742E+02 delta_en =   0.647596E+09 tol =   0.100000E-03
 Iteration #        119
  pAp =    27287717.010230955       rzold =    10180.147254377694       alpha =    3.7306701951507568E-004
 delta_qm =   0.581868E+02 delta_en =   0.228535E+10 tol =   0.100000E-03
 Iteration #        120
  pAp =    9764842.5378637239       rzold =   -236974.03673543755       alpha =   -2.4268085820796131E-002
 delta_qm =   0.392314E+05 delta_en =   0.103889E+16 tol =   0.100000E-03
 Iteration #        121
  pAp =   -48457996318193416.       rzold =    16704677567.569109       alpha =   -3.4472489241775325E-007
 delta_qm =   0.822488E+02 delta_en =   0.456628E+10 tol =   0.100000E-03
 Iteration #        122
  pAp =   -15835866.736694844       rzold =    68036.959927987817       alpha =   -4.2963837129503420E-003
 delta_qm =   0.980262E+03 delta_en =   0.648617E+12 tol =   0.100000E-03
 Iteration #        123
  pAp =    298775884243.72089       rzold =    9353374.9855510127       alpha =    3.1305655773479931E-005
 delta_qm =   0.302428E+02 delta_en =   0.617374E+09 tol =   0.100000E-03
 Iteration #        124
  pAp =    4535270.0157822333       rzold =    9639.0699246760869       alpha =    2.1253574519561570E-003
 delta_qm =   0.822881E+02 delta_en =   0.457065E+10 tol =   0.100000E-03
 Iteration #        125
  pAp =    7205073857.8164492       rzold =    212624.27354299714       alpha =    2.9510353084351935E-005
 delta_qm =   0.105400E+03 delta_en =   0.749863E+10 tol =   0.100000E-03
 Iteration #        126
  pAp =   -898732914.03436506       rzold =    160599.47294307360       alpha =   -1.7869543936268115E-004
 delta_qm =   0.527048E+02 delta_en =   0.187501E+10 tol =   0.100000E-03
 Iteration #        127
  pAp =    234053678.81835863       rzold =    34080.209192824084       alpha =    1.4560851751991736E-004
 delta_qm =   0.502368E+02 delta_en =   0.170352E+10 tol =   0.100000E-03
 Iteration #        128
  pAp =    57319356.333704710       rzold =    58419.039835585972       alpha =    1.0191852032580245E-003
 delta_qm =   0.289308E+03 delta_en =   0.564970E+11 tol =   0.100000E-03
 Iteration #        129
  pAp =   -2666708858.3856144       rzold =    824875.83002355148       alpha =   -3.0932354217434857E-004
 delta_qm =   0.927695E+03 delta_en =   0.580918E+12 tol =   0.100000E-03
 Iteration #        130
  pAp =    11622971376326.350       rzold =   -46610766.365235433       alpha =   -4.0102280953880835E-006
 delta_qm =   0.351856E+02 delta_en =   0.835669E+09 tol =   0.100000E-03
 Iteration #        131
  pAp =    15137722.009377494       rzold =    13415.132156728838       alpha =    8.8620547717935705E-004
 delta_qm =   0.355419E+02 delta_en =   0.852680E+09 tol =   0.100000E-03
 Iteration #        132
  pAp =    19426322.724179979       rzold =    18734.736397548593       alpha =    9.6439952447765283E-004
 delta_qm =   0.953950E+02 delta_en =   0.614264E+10 tol =   0.100000E-03
 Iteration #        133
  pAp =   -493078016.45186675       rzold =    111451.60095365060       alpha =   -2.2603238683331216E-004
 delta_qm =   0.625594E+02 delta_en =   0.264173E+10 tol =   0.100000E-03
 Iteration #        134
  pAp =   -201387991.34773380       rzold =    26032.740120187427       alpha =   -1.2926659601682536E-004
 delta_qm =   0.542689E+02 delta_en =   0.198795E+10 tol =   0.100000E-03
 Iteration #        135
  pAp =    20247972.337938275       rzold =    22467.848707178808       alpha =    1.1096345022697008E-003
 delta_qm =   0.788132E+02 delta_en =   0.419278E+10 tol =   0.100000E-03
 Iteration #        136
  pAp =    4984575.9778734986       rzold =    73051.393597514078       alpha =    1.4655488033844555E-002
 delta_qm =   0.439601E+04 delta_en =   0.130443E+14 tol =   0.100000E-03
 Iteration #        137
  pAp =   -2708363267368600.0       rzold =    1734273595.6604292       alpha =   -6.4034009638057900E-007
 delta_qm =   0.105730E+03 delta_en =   0.754567E+10 tol =   0.100000E-03
 Iteration #        138
  pAp =    1160705191.4708335       rzold =    164046.96681471041       alpha =    1.4133387876626261E-004
 delta_qm =   0.366102E+02 delta_en =   0.904708E+09 tol =   0.100000E-03
 Iteration #        139
  pAp =    3272231173.3482261       rzold =   -47912.807147655185       alpha =   -1.4642243964270299E-005
 delta_qm =   0.343704E+02 delta_en =   0.797394E+09 tol =   0.100000E-03
 Iteration #        140
  pAp =   -2392957.6364587466       rzold =    8951.1014014574903       alpha =   -3.7406016993697844E-003
 delta_qm =   0.103549E+03 delta_en =   0.723765E+10 tol =   0.100000E-03
 Iteration #        141
  pAp =    428401468.72348094       rzold =    112639.83232945015       alpha =    2.6293054658539335E-004
 delta_qm =   0.595780E+02 delta_en =   0.239594E+10 tol =   0.100000E-03
 Iteration #        142
  pAp =   -56165716.452425659       rzold =    29849.600373979658       alpha =   -5.3145588197496465E-004
 delta_qm =   0.133924E+03 delta_en =   0.121065E+11 tol =   0.100000E-03
 Iteration #        143
  pAp =    2743847161.4460850       rzold =    202273.83857078356       alpha =    7.3719061838772211E-005
 delta_qm =   0.390587E+02 delta_en =   0.102977E+10 tol =   0.100000E-03
 Iteration #        144
  pAp =    21348613.347064417       rzold =    21031.085109092615       alpha =    9.8512651698685330E-004
 delta_qm =   0.739190E+02 delta_en =   0.368821E+10 tol =   0.100000E-03
 Iteration #        145
  pAp =    241216775.96117267       rzold =    82393.854597716272       alpha =    3.4157597152769656E-004
 delta_qm =   0.181864E+03 delta_en =   0.223252E+11 tol =   0.100000E-03
 Iteration #        146
  pAp =   -10842145334.236712       rzold =    1094078.6157289688       alpha =   -1.0090979063655874E-004
 delta_qm =   0.252233E+03 delta_en =   0.429446E+11 tol =   0.100000E-03
 Iteration #        147
  pAp =    612665353998.76343       rzold =    6011430.3232386364       alpha =    9.8119312345688305E-006
 delta_qm =   0.367593E+02 delta_en =   0.912089E+09 tol =   0.100000E-03
 Iteration #        148
  pAp =    21626852.678718161       rzold =    11335.097186841364       alpha =    5.2412144084171947E-004
 delta_qm =   0.535035E+02 delta_en =   0.193227E+10 tol =   0.100000E-03
 Iteration #        149
  pAp =    2283121010.1719022       rzold =   -316295.76269442384       alpha =   -1.3853657396399201E-004
 delta_qm =   0.212523E+03 delta_en =   0.304871E+11 tol =   0.100000E-03
 Iteration #        150
  pAp =   -2730733904.3665829       rzold =    371408.51262073888       alpha =   -1.3601051059088464E-004
 delta_qm =   0.321157E+02 delta_en =   0.696206E+09 tol =   0.100000E-03
 Iteration #        151
  pAp =    3510068.0885153878       rzold =    8954.4728326053100       alpha =    2.5510823741292945E-003
 delta_qm =   0.662377E+02 delta_en =   0.296152E+10 tol =   0.100000E-03
 Iteration #        152
  pAp =   -69015642.171203658       rzold =    41131.532656827534       alpha =   -5.9597406273196143E-004
 delta_qm =   0.537675E+02 delta_en =   0.195139E+10 tol =   0.100000E-03
 Iteration #        153
  pAp =   -157554878.23175153       rzold =    20468.287566327879       alpha =   -1.2991211567705665E-004
 delta_qm =   0.504006E+02 delta_en =   0.171465E+10 tol =   0.100000E-03
 Iteration #        154
  pAp =    45104438.302831054       rzold =    19316.226022347324       alpha =    4.2825554976781320E-004
 delta_qm =   0.369302E+02 delta_en =   0.920592E+09 tol =   0.100000E-03
 Iteration #        155
  pAp =    7946126879.7766151       rzold =    241620.70820689920       alpha =    3.0407355918496453E-005
 delta_qm =   0.367862E+02 delta_en =   0.913426E+09 tol =   0.100000E-03
 Iteration #        156
  pAp =   -8934561.1627279148       rzold =    13737.489763693085       alpha =   -1.5375673761125984E-003
 delta_qm =   0.352496E+02 delta_en =   0.838712E+09 tol =   0.100000E-03
 Iteration #        157
  pAp =    1502042824.7214253       rzold =   -11632.850361903626       alpha =   -7.7446862169599582E-006
 delta_qm =   0.346855E+02 delta_en =   0.812080E+09 tol =   0.100000E-03
 Iteration #        158
  pAp =    3048917.9925618568       rzold =    6374.0169575508162       alpha =    2.0905832735091182E-003
 delta_qm =   0.249205E+02 delta_en =   0.419195E+09 tol =   0.100000E-03
 Iteration #        159
  pAp =    3251495.7566051930       rzold =    6740.4370816658393       alpha =    2.0730265656884522E-003
 delta_qm =   0.860023E+02 delta_en =   0.499256E+10 tol =   0.100000E-03
 Iteration #        160
  pAp =   -1332592130.2752209       rzold =    176802.62950673213       alpha =   -1.3267572687091961E-004
 delta_qm =   0.810012E+02 delta_en =   0.442880E+10 tol =   0.100000E-03
 Iteration #        161
  pAp =    82880708.188071147       rzold =    53203.430003249232       alpha =    6.4192779195999556E-004
 delta_qm =   0.244990E+03 delta_en =   0.405135E+11 tol =   0.100000E-03
 Iteration #        162
  pAp =   -20740595569.155060       rzold =    1088098.0405118470       alpha =   -5.2462237011652722E-005
 delta_qm =   0.126280E+03 delta_en =   0.107640E+11 tol =   0.100000E-03
 Iteration #        163
  pAp =    1480107510.5872884       rzold =    197232.47763625835       alpha =    1.3325550760701088E-004
 delta_qm =   0.346685E+02 delta_en =   0.811287E+09 tol =   0.100000E-03
 Iteration #        164
  pAp =    5902705286.3648977       rzold =    112450.32919754327       alpha =    1.9050642670116145E-005
 delta_qm =   0.315706E+02 delta_en =   0.672774E+09 tol =   0.100000E-03
 Iteration #        165
  pAp =    15563271.608241066       rzold =    15393.326053038683       alpha =    9.8908034509194117E-004
 delta_qm =   0.681235E+02 delta_en =   0.313255E+10 tol =   0.100000E-03
 Iteration #        166
  pAp =   -93244999.507188708       rzold =    46200.522075886009       alpha =   -4.9547452753564752E-004
 delta_qm =   0.662641E+02 delta_en =   0.296388E+10 tol =   0.100000E-03
 Iteration #        167
  pAp =    42654210163.102768       rzold =   -513647.55723283038       alpha =   -1.2042130314187641E-005
 delta_qm =   0.309106E+02 delta_en =   0.644941E+09 tol =   0.100000E-03
 Iteration #        168
  pAp =    8895299.3984868079       rzold =    9488.0428218340003       alpha =    1.0666355787246492E-003
 delta_qm =   0.371718E+02 delta_en =   0.932676E+09 tol =   0.100000E-03
 Iteration #        169
  pAp =   -7907341.3647027388       rzold =    17325.319630774149       alpha =   -2.1910423278438365E-003
 delta_qm =   0.112403E+03 delta_en =   0.852826E+10 tol =   0.100000E-03
 Iteration #        170
  pAp =    846498044.85367954       rzold =    153374.46415758223       alpha =    1.8118702705815888E-004
 delta_qm =   0.479058E+02 delta_en =   0.154910E+10 tol =   0.100000E-03
 Iteration #        171
  pAp =    8307874.6939417040       rzold =    31335.314738597721       alpha =    3.7717606358998366E-003
 delta_qm =   0.102892E+04 delta_en =   0.714603E+12 tol =   0.100000E-03
 Iteration #        172
  pAp =   -629686261361.63660       rzold =    8513491.5003541876       alpha =   -1.3520211608150022E-005
 delta_qm =   0.137183E+03 delta_en =   0.127030E+11 tol =   0.100000E-03
 Iteration #        173
  pAp =    39070926408.318794       rzold =    690801.10132286919       alpha =    1.7680694184302401E-005
 delta_qm =   0.100636E+03 delta_en =   0.683611E+10 tol =   0.100000E-03
 Iteration #        174
  pAp =   -616327041.95575678       rzold =    92199.095757613191       alpha =   -1.4959443522880785E-004
 delta_qm =   0.233647E+02 delta_en =   0.368487E+09 tol =   0.100000E-03
 Iteration #        175
  pAp =    3538350.3397852248       rzold =    5921.8240887228103       alpha =    1.6736115760324233E-003
 delta_qm =   0.467090E+02 delta_en =   0.147267E+10 tol =   0.100000E-03
 Iteration #        176
  pAp =    2378972311.6515450       rzold =   -6707.0476077276617       alpha =   -2.8193046110198118E-006
 delta_qm =   0.465437E+02 delta_en =   0.146226E+10 tol =   0.100000E-03
 Iteration #        177
  pAp =   -114931.73717945561       rzold =    5690.8712133421805       alpha =   -4.9515228369483313E-002
 delta_qm =   0.111662E+04 delta_en =   0.841615E+12 tol =   0.100000E-03
 Iteration #        178
  pAp =    645348879906.72058       rzold =    13335119.367204573       alpha =    2.0663426841512526E-005
 delta_qm =   0.364424E+02 delta_en =   0.896434E+09 tol =   0.100000E-03
 Iteration #        179
  pAp =    11165658.699752582       rzold =    12609.196968371643       alpha =    1.1292837536446504E-003
 delta_qm =   0.112050E+03 delta_en =   0.847482E+10 tol =   0.100000E-03
 Iteration #        180
  pAp =   -5837876788.5878239       rzold =    423802.12713930017       alpha =   -7.2595250377289558E-005
 delta_qm =   0.829378E+02 delta_en =   0.464311E+10 tol =   0.100000E-03
 Iteration #        181
  pAp =    416549761.64542484       rzold =    80431.764343483839       alpha =    1.9309041019677478E-004
 delta_qm =   0.292270E+02 delta_en =   0.576595E+09 tol =   0.100000E-03
 Iteration #        182
  pAp =    949491552.85987222       rzold =    22885.246936479507       alpha =    2.4102633527964576E-005
 delta_qm =   0.299274E+02 delta_en =   0.604561E+09 tol =   0.100000E-03
 Iteration #        183
  pAp =   -12013109.944662564       rzold =    12024.390330274515       alpha =   -1.0009390062743048E-003
 delta_qm =   0.117603E+03 delta_en =   0.933558E+10 tol =   0.100000E-03
 Iteration #        184
  pAp =    1506366395.8900988       rzold =    131636.69857545799       alpha =    8.7386905957680382E-005
 delta_qm =   0.490535E+02 delta_en =   0.162422E+10 tol =   0.100000E-03
 Iteration #        185
  pAp =   -35648121.215480089       rzold =    29506.785113693448       alpha =   -8.2772342854579991E-004
 delta_qm =   0.167609E+03 delta_en =   0.189625E+11 tol =   0.100000E-03
 Iteration #        186
  pAp =    8160588764.6954880       rzold =    106782.55111368232       alpha =    1.3085152823243251E-005
 delta_qm =   0.162078E+03 delta_en =   0.177317E+11 tol =   0.100000E-03
 Iteration #        187
  pAp =    1259445897.9926119       rzold =   -171721.98559114372       alpha =   -1.3634725069560001E-004
 delta_qm =   0.369688E+02 delta_en =   0.922518E+09 tol =   0.100000E-03
 Iteration #        188
  pAp =    12908057.371625923       rzold =    16892.953992956194       alpha =    1.3087138913783992E-003
 delta_qm =   0.971783E+02 delta_en =   0.637444E+10 tol =   0.100000E-03
 Iteration #        189
  pAp =   -343723205.62094301       rzold =    90498.531461765495       alpha =   -2.6328897782236738E-004
 delta_qm =   0.245653E+02 delta_en =   0.407331E+09 tol =   0.100000E-03
 Iteration #        190
  pAp =   -150861.45399061017       rzold =    5456.1033419757287       alpha =   -3.6166318152517106E-002
 delta_qm =   0.113919E+04 delta_en =   0.875986E+12 tol =   0.100000E-03
 Iteration #        191
  pAp =    6889726682358.3389       rzold =    32732216.342328209       alpha =    4.7508729810924865E-006
 delta_qm =   0.239967E+03 delta_en =   0.388694E+11 tol =   0.100000E-03
 Iteration #        192
  pAp =    9341807332.9207230       rzold =    651421.70663109119       alpha =    6.9731871298123183E-005
 delta_qm =   0.476559E+02 delta_en =   0.153299E+10 tol =   0.100000E-03
 Iteration #        193
  pAp =   -150493301.20036823       rzold =    16948.486287452346       alpha =   -1.1261953955602960E-004
 delta_qm =   0.400010E+02 delta_en =   0.108006E+10 tol =   0.100000E-03
 Iteration #        194
  pAp =    17472978.201730754       rzold =    12386.938728806859       alpha =    7.0891971510500106E-004
 delta_qm =   0.410554E+02 delta_en =   0.113775E+10 tol =   0.100000E-03
 Iteration #        195
  pAp =    100646421.68301333       rzold =    22431.046443381620       alpha =    2.2286978581343279E-004
 delta_qm =   0.606542E+02 delta_en =   0.248328E+10 tol =   0.100000E-03
 Iteration #        196
  pAp =   -6164945917.4383869       rzold =   -395030.28025814606       alpha =    6.4076844395463274E-005
 delta_qm =   0.423700E+02 delta_en =   0.121177E+10 tol =   0.100000E-03
 Iteration #        197
  pAp =    46064969.576705463       rzold =    20776.904708342900       alpha =    4.5103480799539152E-004
 delta_qm =   0.264305E+02 delta_en =   0.471535E+09 tol =   0.100000E-03
 Iteration #        198
  pAp =    644478130.99340546       rzold =    50466.393942006122       alpha =    7.8305828413784473E-005
 delta_qm =   0.200412E+02 delta_en =   0.271114E+09 tol =   0.100000E-03
 Iteration #        199
  pAp =    380982.33525091287       rzold =    4130.9562509994057       alpha =    1.0842907580685547E-002
 delta_qm =   0.217848E+03 delta_en =   0.320340E+11 tol =   0.100000E-03
 Iteration #        200
  pAp =    3289269174.5282750       rzold =    956877.29912402201       alpha =    2.9090878500731120E-004
 delta_qm =   0.150371E+04 delta_en =   0.152628E+13 tol =   0.100000E-03
