
     Program PWSCF v.6.1 (svn rev. 13369) starts on  7Nov2017 at 16:46:29 

     This program is part of the open-source Quantum ESPRESSO suite
     for quantum simulation of materials; please cite
         "P. Giannozzi et al., J. Phys.:Condens. Matter 21 395502 (2009);
          URL http://www.quantum-espresso.org", 
     in publications or presentations arising from this work. More details at
     http://www.quantum-espresso.org/quote

     Serial version
     Reading input from charged.in

     Current dimensions of program PWSCF are:
     Max number of different atomic species (ntypx) = 10
     Max number of k-points (npk) =  40000
     Max angular momentum in pseudopotentials (lmaxx) =  3
               file C.pbe-rrkjus.UPF: wavefunction(s)  2S 2P renormalized
               file O.pbe-rrkjus.UPF: wavefunction(s)  2S renormalized

     gamma-point specific algorithms are used

     G-vector sticks info
     --------------------
     sticks:   dense  smooth     PW     G-vecs:    dense   smooth      PW
     Sum        2205    1099    269               330909   116965   14571



     bravais-lattice index     =            8
     lattice parameter (alat)  =      10.6881  a.u.
     unit-cell volume          =    4181.1215 (a.u.)^3
     number of atoms/cell      =           10
     number of atomic types    =            3
     number of electrons       =        89.00
     number of Kohn-Sham states=           80
     kinetic-energy cutoff     =      35.0000  Ry
     charge density cutoff     =     280.0000  Ry
     convergence threshold     =      5.0E-02
     mixing beta               =       0.7000
     number of iterations used =            8  plain     mixing
     Exchange-correlation      = PBE ( 1  4  3  4 0 0)


     Environ Module
     ==============

     Plese cite
         O. Andreussi, I. Dabo and N. Marzari, J. Chem. Phys. 136, 064102 (2012)         
     in publications or presentations arising from this work.

     compensation onset threshold      =               0.1000E+03 

     Electrostatic Setup
     -------------------
     electrostatic problem to solve    = poisson                  
     numerical solver adopted          = direct                   
     type of auxiliary density adopted = none                     
     type of core tool for poisson     = fft                      
     type of core tool for s(r) deriv  = analytic                 



     celldm(1)=  10.688100  celldm(2)=   0.866025  celldm(3)=   3.954220
     celldm(4)=   0.000000  celldm(5)=   0.000000  celldm(6)=   0.000000

     crystal axes: (cart. coord. in units of alat)
               a(1) = (   1.000000   0.000000   0.000000 )  
               a(2) = (   0.000000   0.866025   0.000000 )  
               a(3) = (   0.000000   0.000000   3.954220 )  

     reciprocal axes: (cart. coord. in units 2 pi/alat)
               b(1) = (  1.000000  0.000000  0.000000 )  
               b(2) = (  0.000000  1.154701  0.000000 )  
               b(3) = (  0.000000  0.000000  0.252894 )  


     PseudoPot. # 1 for C  read from file:
     /Users/oliviero/PWSCF/espresso-6.1-Environ-1.0/Environ/tests/../..//pseudo/C.pbe-rrkjus.UPF
     MD5 check sum: 00fb224312de0c5b6853bd333518df6f
     Pseudo is Ultrasoft, Zval =  4.0
     Generated by new atomic code, or converted to UPF format
     Using radial grid of  627 points,  4 beta functions with: 
                l(1) =   0
                l(2) =   0
                l(3) =   1
                l(4) =   1
     Q(r) pseudized with 0 coefficients 


     PseudoPot. # 2 for O  read from file:
     /Users/oliviero/PWSCF/espresso-6.1-Environ-1.0/Environ/tests/../..//pseudo/O.pbe-rrkjus.UPF
     MD5 check sum: 390ba29e75625707450f3bd3f0eb6be9
     Pseudo is Ultrasoft, Zval =  6.0
     Generated by new atomic code, or converted to UPF format
     Using radial grid of 1269 points,  4 beta functions with: 
                l(1) =   0
                l(2) =   0
                l(3) =   1
                l(4) =   1
     Q(r) pseudized with 0 coefficients 


     PseudoPot. # 3 for Pt read from file:
     /Users/oliviero/PWSCF/espresso-6.1-Environ-1.0/Environ/tests/../..//pseudo/Pt.pbe-n-rrkjus_psl.0.1.UPF
     MD5 check sum: df5be8f5ed4f66d4aed38ca70ec8d507
     Pseudo is Ultrasoft + core correction, Zval = 10.0
     Generated using "atomic" code by A. Dal Corso  v.5.0.2 svn rev. 9415
     Using radial grid of 1277 points,  6 beta functions with: 
                l(1) =   0
                l(2) =   0
                l(3) =   1
                l(4) =   1
                l(5) =   2
                l(6) =   2
     Q(r) pseudized with 0 coefficients 


     atomic species   valence    mass     pseudopotential
        C              4.00     1.00000     C ( 1.00)
        O              6.00     1.00000     O ( 1.00)
        Pt            10.00     1.00000     Pt( 1.00)

     No symmetry found



   Cartesian axes

     site n.     atom                  positions (alat units)
         1           C   tau(   1) = (   0.4991611   0.4347567   1.2070461  )
         2           O   tau(   2) = (   0.4991542   0.4322212   1.4109013  )
         3           Pt  tau(   3) = (   0.7542339   0.0091745   0.8413229  )
         4           Pt  tau(   4) = (   0.2441023   0.0091745   0.8413226  )
         5           Pt  tau(   5) = (   0.0000034   0.4416918   0.8391348  )
         6           Pt  tau(   6) = (   0.4991682   0.4417635   0.8776299  )
         7           Pt  tau(   7) = (   0.0000038   0.7300598   0.4308181  )
         8           Pt  tau(   8) = (   0.4991683   0.7202168   0.4447460  )
         9           Pt  tau(   9) = (   0.2524172   0.2949237   0.4386572  )
        10           Pt  tau(  10) = (   0.7459196   0.2949237   0.4386575  )

     number of k points=     1  Marzari-Vanderbilt smearing, width (Ry)=  0.0300
                       cart. coord. in units 2pi/alat
        k(    1) = (   0.0000000   0.0000000   0.0000000), wk =   2.0000000

     Dense  grid:   165455 G-vectors     FFT dimensions: (  60,  50, 225)

     Smooth grid:    58483 G-vectors     FFT dimensions: (  45,  36, 160)

     Estimated max dynamical RAM per process >     216.67MB

     Initial potential from superposition of free atoms
     Check: negative starting charge=   -0.001782

     starting charge   89.99859, renormalised to   89.00000

     negative rho (up, down):  1.762E-03 0.000E+00
     Starting wfc are   80 randomized atomic wfcs

     total cpu time spent up to now is       10.8 secs

     Self-consistent Calculation

     iteration #  1     ecut=    35.00 Ry     beta=0.70
     Davidson diagonalization with overlap
     ethr =  1.00E-02,  avg # of iterations =  5.0

     negative rho (up, down):  1.526E-03 0.000E+00

     add environment contribution to local potential

     total cpu time spent up to now is       16.0 secs

     total energy              =    -622.68843633 Ry
     Harris-Foulkes estimate   =    -624.21108732 Ry
     estimated scf accuracy    <       1.86594048 Ry
     electrostatic embedding   =       0.03381190 Ry
     correction to one-el term =       0.00000000 Ry

     iteration #  2     ecut=    35.00 Ry     beta=0.70
     Davidson diagonalization with overlap
     ethr =  2.10E-03,  avg # of iterations =  6.0

     negative rho (up, down):  3.549E-02 0.000E+00

     total cpu time spent up to now is       21.2 secs

     total energy              =    -614.68561455 Ry
     Harris-Foulkes estimate   =    -644.87579312 Ry
     estimated scf accuracy    <     222.57050776 Ry
     electrostatic embedding   =       0.18951961 Ry
     correction to one-el term =       9.82182085 Ry

     iteration #  3     ecut=    35.00 Ry     beta=0.70
     Davidson diagonalization with overlap
     ethr =  2.10E-03,  avg # of iterations =  6.0

     negative rho (up, down):  2.162E-02 0.000E+00

     add environment contribution to local potential

     total cpu time spent up to now is       26.5 secs

     total energy              =    -623.32779681 Ry
     Harris-Foulkes estimate   =    -633.99682439 Ry
     estimated scf accuracy    <       5.22685683 Ry
     electrostatic embedding   =       0.21357413 Ry
     correction to one-el term =       9.77371181 Ry

     iteration #  4     ecut=    35.00 Ry     beta=0.70
     Davidson diagonalization with overlap
     ethr =  2.10E-03,  avg # of iterations =  4.0

     negative rho (up, down):  5.431E-03 0.000E+00

     add environment contribution to local potential

     total cpu time spent up to now is       31.1 secs

     total energy              =    -623.65001671 Ry
     Harris-Foulkes estimate   =    -638.25093004 Ry
     estimated scf accuracy    <       7.77854235 Ry
     electrostatic embedding   =       0.24854820 Ry
     correction to one-el term =      13.79448128 Ry

     iteration #  5     ecut=    35.00 Ry     beta=0.70
     Davidson diagonalization with overlap
     ethr =  2.10E-03,  avg # of iterations =  1.0

     negative rho (up, down):  8.690E-03 0.000E+00

     add environment contribution to local potential

     total cpu time spent up to now is       35.5 secs

     total energy              =    -623.73937398 Ry
     Harris-Foulkes estimate   =    -638.06995528 Ry
     estimated scf accuracy    <       3.96533563 Ry
     electrostatic embedding   =       0.25036429 Ry
     correction to one-el term =      13.84910925 Ry

     iteration #  6     ecut=    35.00 Ry     beta=0.70
     Davidson diagonalization with overlap
     ethr =  2.10E-03,  avg # of iterations =  1.0

     negative rho (up, down):  8.378E-03 0.000E+00

     add environment contribution to local potential

     total cpu time spent up to now is       39.9 secs

     total energy              =    -623.73283284 Ry
     Harris-Foulkes estimate   =    -637.92599520 Ry
     estimated scf accuracy    <       2.58002997 Ry
     electrostatic embedding   =       0.25107292 Ry
     correction to one-el term =      13.82991703 Ry

     iteration #  7     ecut=    35.00 Ry     beta=0.70
     Davidson diagonalization with overlap
     ethr =  2.10E-03,  avg # of iterations =  1.0

     negative rho (up, down):  6.877E-03 0.000E+00

     add environment contribution to local potential

     total cpu time spent up to now is       44.3 secs

     total energy              =    -623.70555160 Ry
     Harris-Foulkes estimate   =    -637.94121704 Ry
     estimated scf accuracy    <       1.51582595 Ry
     electrostatic embedding   =       0.24904666 Ry
     correction to one-el term =      13.93003161 Ry

     iteration #  8     ecut=    35.00 Ry     beta=0.70
     Davidson diagonalization with overlap
     ethr =  1.70E-03,  avg # of iterations =  1.0

     negative rho (up, down):  5.331E-03 0.000E+00

     add environment contribution to local potential

     total cpu time spent up to now is       48.7 secs

     total energy              =    -623.70492096 Ry
     Harris-Foulkes estimate   =    -637.56119617 Ry
     estimated scf accuracy    <       0.34432860 Ry
     electrostatic embedding   =       0.24546512 Ry
     correction to one-el term =      13.59327036 Ry

     iteration #  9     ecut=    35.00 Ry     beta=0.70
     Davidson diagonalization with overlap
     ethr =  3.87E-04,  avg # of iterations =  1.0

     negative rho (up, down):  4.614E-03 0.000E+00

     add environment contribution to local potential

     total cpu time spent up to now is       53.1 secs

     total energy              =    -623.69211485 Ry
     Harris-Foulkes estimate   =    -637.38235803 Ry
     estimated scf accuracy    <       0.18048443 Ry
     electrostatic embedding   =       0.24217032 Ry
     correction to one-el term =      13.43613392 Ry

     iteration # 10     ecut=    35.00 Ry     beta=0.70
     Davidson diagonalization with overlap
     ethr =  2.03E-04,  avg # of iterations =  4.0

     negative rho (up, down):  3.514E-03 0.000E+00

     add environment contribution to local potential

     total cpu time spent up to now is       57.6 secs

     total energy              =    -623.68304209 Ry
     Harris-Foulkes estimate   =    -637.07709779 Ry
     estimated scf accuracy    <       0.08506171 Ry
     electrostatic embedding   =       0.23850892 Ry
     correction to one-el term =      13.14718125 Ry

     iteration # 11     ecut=    35.00 Ry     beta=0.70
     Davidson diagonalization with overlap
     ethr =  9.56E-05,  avg # of iterations =  4.0

     negative rho (up, down):  2.359E-03 0.000E+00

     total cpu time spent up to now is       61.9 secs

     End of self-consistent calculation

          k = 0.0000 0.0000 0.0000 (  7286 PWs)   bands (ev):

   -29.9204 -16.5668 -15.0104 -13.6244 -12.9817 -12.9024 -12.8205 -12.7941
   -12.6119 -11.8243 -11.7460 -11.5918 -11.3773 -11.3625 -11.2942 -11.1916
   -10.4302 -10.3802 -10.3331 -10.1547 -10.1423 -10.0762 -10.0670 -10.0277
    -9.9958  -9.8222  -9.8056  -9.7286  -9.5848  -9.3730  -9.2972  -8.4923
    -8.3756  -8.1628  -7.9096  -7.8728  -7.8016  -7.6298  -7.5348  -7.3881
    -7.1718  -7.1407  -6.9704  -6.9044  -6.8430  -6.6812  -6.4892  -5.4543
    -5.0982  -5.0679  -4.4664  -3.8603  -3.5878  -2.4924  -2.2947  -2.2372
    -0.9297  -0.5490   0.4598   0.7452   0.9978   1.5059   1.8996   2.1568
     2.1797   3.5704   4.0114   4.6558   4.7550   4.9630   5.2789   5.4701
     5.7766   6.0563   6.4112   6.6469   6.8489   7.2856   7.7046   7.8059

     the Fermi energy is    -6.7677 ev

!    total energy              =    -623.65472358 Ry
     Harris-Foulkes estimate   =    -636.84511997 Ry
     estimated scf accuracy    <       0.03448431 Ry

     The total energy is the sum of the following terms:

     one-electron contribution =   -3955.21286281 Ry
     hartree contribution      =    2008.06632767 Ry
     xc contribution           =    -262.87340013 Ry
     ewald contribution        =    1573.20467954 Ry
     smearing contrib. (-TS)   =      -0.00044789 Ry
     electrostatic embedding   =       0.23695407 Ry
     correction to one-el term =      12.92402597 Ry

     convergence has been achieved in  11 iterations

     negative rho (up, down):  2.359E-03 0.000E+00

     Forces acting on atoms (cartesian axes, Ry/au):

     atom    1 type  1   force =     0.00011959   -0.00505618    0.09042787
     atom    2 type  2   force =    -0.00010401    0.00159712    0.00777327
     atom    3 type  3   force =    -0.01525542    0.00912086    0.03495766
     atom    4 type  3   force =     0.01665767    0.00995506    0.03287373
     atom    5 type  3   force =    -0.00008940    0.00809780    0.01541904
     atom    6 type  3   force =    -0.00147312    0.01247655    0.03892647
     atom    7 type  3   force =     0.00088519   -0.00675127   -0.06866687
     atom    8 type  3   force =    -0.00198070   -0.01729032   -0.03420797
     atom    9 type  3   force =     0.02943798   -0.00660506   -0.05911239
     atom   10 type  3   force =    -0.02819779   -0.00554456   -0.05839081

     Total force =     0.167666     Total SCF correction =     0.252256
     SCF correction compared to forces is large: reduce conv_thr to get better values

     Writing output data file pwscf.save

     init_run     :     10.09s CPU     10.39s WALL (       1 calls)
     electrons    :     52.35s CPU     51.12s WALL (       1 calls)
     forces       :      5.82s CPU      5.98s WALL (       1 calls)

     Called by init_run:
     wfcinit      :      0.59s CPU      0.52s WALL (       1 calls)
     potinit      :      2.69s CPU      2.76s WALL (       1 calls)

     Called by electrons:
     c_bands      :     18.95s CPU     14.80s WALL (      11 calls)
     sum_band     :     16.46s CPU     16.13s WALL (      11 calls)
     v_of_rho     :      6.26s CPU      6.72s WALL (      12 calls)
     newd         :      9.34s CPU     11.99s WALL (      12 calls)
     mix_rho      :      0.62s CPU      0.81s WALL (      11 calls)

     Called by c_bands:
     init_us_2    :      0.17s CPU      0.19s WALL (      23 calls)
     regterg      :     18.12s CPU     13.95s WALL (      11 calls)

     Called by sum_band:
     sum_band:bec :      0.00s CPU      0.00s WALL (      11 calls)
     addusdens    :     13.08s CPU     12.80s WALL (      11 calls)

     Called by *egterg:
     h_psi        :     12.27s CPU     10.93s WALL (      46 calls)
     s_psi        :      1.50s CPU      0.41s WALL (      46 calls)
     g_psi        :      0.08s CPU      0.09s WALL (      34 calls)
     rdiaghg      :      0.64s CPU      0.60s WALL (      45 calls)

     Called by h_psi:
     h_psi:pot    :     12.19s CPU     10.85s WALL (      46 calls)
     h_psi:calbec :      0.80s CPU      0.41s WALL (      46 calls)
     vloc_psi     :      9.89s CPU     10.02s WALL (      46 calls)
     add_vuspsi   :      1.50s CPU      0.41s WALL (      46 calls)

     General routines
     calbec       :      1.18s CPU      0.61s WALL (      61 calls)
     fft          :      4.36s CPU      4.40s WALL (     236 calls)
     ffts         :      0.14s CPU      0.15s WALL (      23 calls)
     fftw         :     10.02s CPU     10.15s WALL (    2646 calls)
     interpolate  :      0.71s CPU      0.80s WALL (      23 calls)
     davcio       :      0.00s CPU      0.00s WALL (       1 calls)


     Environ routines
     calc_eelect  :      0.02s CPU      0.02s WALL (      22 calls)
     calc_velect  :      1.32s CPU      1.44s WALL (      18 calls)
     calc_felect  :      0.15s CPU      0.15s WALL (       1 calls)

     PWSCF        :  1m 8.73s CPU     1m 8.11s WALL


   This run was terminated on:  16:47:38   7Nov2017            

=------------------------------------------------------------------------------=
   JOB DONE.
=------------------------------------------------------------------------------=

%%%% IONS %%%%%%%%%%%%%%%%%%%%%%%%%%%%%%%%%%%%%%%%%%%%%%%%%%%%%%%%%%%%%%%%%%%%%%
 number of ions             =         10
 ionic center of charge     =      0.3882415     0.3750182     0.7201831
 total ionic charge         =    -90.0000000
 ionic dipole               =      0.0000000     0.0000000     0.0000000
 ionic quadrupole (pc)      =   -730.5101255  -614.6110457  -876.7220256
 ionic quadrupole (gauss)   =   -741.7601255  -625.8610457  -887.9720256
 ion   1 type =  1 coordinates =      5.3350841     4.6467234    12.9010299
 ion   2 type =  2 coordinates =      5.3350096     4.6196233    15.0798543
 ion   3 type =  3 coordinates =      8.0613271     0.0980580     8.9921429
 ion   4 type =  3 coordinates =      2.6089894     0.0980583     8.9921406
 ion   5 type =  3 coordinates =      0.0000366     4.7208463     8.9687569
 ion   6 type =  3 coordinates =      5.3351596     4.7216127     9.3801964
 ion   7 type =  3 coordinates =      0.0000411     7.8029520     4.6046265
 ion   8 type =  3 coordinates =      5.3351612     7.6977491     4.7534894
 ion   9 type =  3 coordinates =      2.6978606     3.1521739     4.6884123
 ion  10 type =  3 coordinates =      7.9724637     3.1521745     4.6884152

%%%% SYSTEM %%%%%%%%%%%%%%%%%%%%%%%%%%%%%%%%%%%%%%%%%%%%%%%%%%%%%%%%%%%%%%%%%%%%
 system is built from all present ionic types
 system defined dimension   =  0 
 system defined axis        =  3 
 system center              =      0.3882415     0.3750182     0.7201831 
 system width               =      1.5145225 

%%%% ELECTRONS %%%%%%%%%%%%%%%%%%%%%%%%%%%%%%%%%%%%%%%%%%%%%%%%%%%%%%%%%%%%%%%%%
 number of electrons        =         89
 total electronic charge    =     89.0000000
 number of spin components  =  1

%%%% ELECTRONS %%%%%%%%%%%%%%%%%%%%%%%%%%%%%%%%%%%%%%%%%%%%%%%%%%%%%%%%%%%%%%%%%
 number of electrons        =         89
 total electronic charge    =     89.0000000
 number of spin components  =  1

%%%% ELECTRONS %%%%%%%%%%%%%%%%%%%%%%%%%%%%%%%%%%%%%%%%%%%%%%%%%%%%%%%%%%%%%%%%%
 number of electrons        =         89
 total electronic charge    =     89.0000000
 number of spin components  =  1

%%%% ELECTRONS %%%%%%%%%%%%%%%%%%%%%%%%%%%%%%%%%%%%%%%%%%%%%%%%%%%%%%%%%%%%%%%%%
 number of electrons        =         89
 total electronic charge    =     89.0000000
 number of spin components  =  1

%%%% ELECTRONS %%%%%%%%%%%%%%%%%%%%%%%%%%%%%%%%%%%%%%%%%%%%%%%%%%%%%%%%%%%%%%%%%
 number of electrons        =         89
 total electronic charge    =     89.0000000
 number of spin components  =  1

%%%% ELECTRONS %%%%%%%%%%%%%%%%%%%%%%%%%%%%%%%%%%%%%%%%%%%%%%%%%%%%%%%%%%%%%%%%%
 number of electrons        =         89
 total electronic charge    =     89.0000000
 number of spin components  =  1

%%%% ELECTRONS %%%%%%%%%%%%%%%%%%%%%%%%%%%%%%%%%%%%%%%%%%%%%%%%%%%%%%%%%%%%%%%%%
 number of electrons        =         89
 total electronic charge    =     89.0000000
 number of spin components  =  1

%%%% ELECTRONS %%%%%%%%%%%%%%%%%%%%%%%%%%%%%%%%%%%%%%%%%%%%%%%%%%%%%%%%%%%%%%%%%
 number of electrons        =         89
 total electronic charge    =     89.0000000
 number of spin components  =  1

%%%% ELECTRONS %%%%%%%%%%%%%%%%%%%%%%%%%%%%%%%%%%%%%%%%%%%%%%%%%%%%%%%%%%%%%%%%%
 number of electrons        =         89
 total electronic charge    =     89.0000000
 number of spin components  =  1

%%%% ELECTRONS %%%%%%%%%%%%%%%%%%%%%%%%%%%%%%%%%%%%%%%%%%%%%%%%%%%%%%%%%%%%%%%%%
 number of electrons        =         89
 total electronic charge    =     89.0000000
 number of spin components  =  1

%%%% ELECTRONS %%%%%%%%%%%%%%%%%%%%%%%%%%%%%%%%%%%%%%%%%%%%%%%%%%%%%%%%%%%%%%%%%
 number of electrons        =         89
 total electronic charge    =     89.0000000
 number of spin components  =  1
