
     Program PWSCF v.6.1 (svn rev. 13369) starts on  8Nov2017 at 15:35:16 

     This program is part of the open-source Quantum ESPRESSO suite
     for quantum simulation of materials; please cite
         "P. Giannozzi et al., J. Phys.:Condens. Matter 21 395502 (2009);
          URL http://www.quantum-espresso.org", 
     in publications or presentations arising from this work. More details at
     http://www.quantum-espresso.org/quote

     Parallel version (MPI), running on     1 processors
     Reading input from neutral.in

     Current dimensions of program PWSCF are:
     Max number of different atomic species (ntypx) = 10
     Max number of k-points (npk) =  40000
     Max angular momentum in pseudopotentials (lmaxx) =  3
     Message from routine  environ_checkin    :
      use some old legacy code for environ
               file C.pbe-rrkjus.UPF: wavefunction(s)  2S 2P renormalized
               file O.pbe-rrkjus.UPF: wavefunction(s)  2S renormalized

     gamma-point specific algorithms are used

     Subspace diagonalization in iterative solution of the eigenvalue problem:
     a serial algorithm will be used

 
     G-vector sticks info
     --------------------
     sticks:   dense  smooth     PW     G-vecs:    dense   smooth      PW
     Sum        2357    1099    269               366833   116965   14571
 


     bravais-lattice index     =            8
     lattice parameter (alat)  =      10.6881  a.u.
     unit-cell volume          =    4181.1215 (a.u.)^3
     number of atoms/cell      =           10
     number of atomic types    =            3
     number of electrons       =        90.00
     number of Kohn-Sham states=           80
     kinetic-energy cutoff     =      35.0000  Ry
     charge density cutoff     =     300.0000  Ry
     convergence threshold     =      5.0E-02
     mixing beta               =       0.7000
     number of iterations used =            8  plain     mixing
     Exchange-correlation      = PBE ( 1  4  3  4 0 0)
 

     Environ Module
     ==============

     Plese cite
         O. Andreussi, I. Dabo and N. Marzari, J. Chem. Phys. 136, 064102 (2012)         
     in publications or presentations arising from this work.

     compensation onset threshold      =               0.1000E+03 
     switching function adopted        =                     SCCS 
     density limit for vacuum region   =               0.5000E-02 
     density limit for bulk solvent    =               0.1000E-03 
     static permittivity               =                   100.00 
     epsilon calculation mode          =                     full 

     Electrostatic Setup
     -------------------
     electrostatic problem to solve    = generalized              
     numerical solver adopted          = iterative                
     type of auxiliary density adopted = full                     
     type of core tool for poisson     = fft                      
     type of core tool for s(r) deriv  = fd                       
     type of numerical differentiator  =            central diff. 
     number of points in num. diff.    =                        2 



     celldm(1)=  10.688100  celldm(2)=   0.866025  celldm(3)=   3.954220
     celldm(4)=   0.000000  celldm(5)=   0.000000  celldm(6)=   0.000000

     crystal axes: (cart. coord. in units of alat)
               a(1) = (   1.000000   0.000000   0.000000 )  
               a(2) = (   0.000000   0.866025   0.000000 )  
               a(3) = (   0.000000   0.000000   3.954220 )  

     reciprocal axes: (cart. coord. in units 2 pi/alat)
               b(1) = (  1.000000  0.000000  0.000000 )  
               b(2) = (  0.000000  1.154701  0.000000 )  
               b(3) = (  0.000000  0.000000  0.252894 )  


     PseudoPot. # 1 for C  read from file:
     /home/andreo/PWSCF/espresso-6.1-Environ-1.0/Environ/tests/../..//pseudo/C.pbe-rrkjus.UPF
     MD5 check sum: 00fb224312de0c5b6853bd333518df6f
     Pseudo is Ultrasoft, Zval =  4.0
     Generated by new atomic code, or converted to UPF format
     Using radial grid of  627 points,  4 beta functions with: 
                l(1) =   0
                l(2) =   0
                l(3) =   1
                l(4) =   1
     Q(r) pseudized with 0 coefficients 


     PseudoPot. # 2 for O  read from file:
     /home/andreo/PWSCF/espresso-6.1-Environ-1.0/Environ/tests/../..//pseudo/O.pbe-rrkjus.UPF
     MD5 check sum: 390ba29e75625707450f3bd3f0eb6be9
     Pseudo is Ultrasoft, Zval =  6.0
     Generated by new atomic code, or converted to UPF format
     Using radial grid of 1269 points,  4 beta functions with: 
                l(1) =   0
                l(2) =   0
                l(3) =   1
                l(4) =   1
     Q(r) pseudized with 0 coefficients 


     PseudoPot. # 3 for Pt read from file:
     /home/andreo/PWSCF/espresso-6.1-Environ-1.0/Environ/tests/../..//pseudo/Pt.pbe-n-rrkjus_psl.0.1.UPF
     MD5 check sum: df5be8f5ed4f66d4aed38ca70ec8d507
     Pseudo is Ultrasoft + core correction, Zval = 10.0
     Generated using "atomic" code by A. Dal Corso  v.5.0.2 svn rev. 9415
     Using radial grid of 1277 points,  6 beta functions with: 
                l(1) =   0
                l(2) =   0
                l(3) =   1
                l(4) =   1
                l(5) =   2
                l(6) =   2
     Q(r) pseudized with 0 coefficients 


     atomic species   valence    mass     pseudopotential
        C              4.00     1.00000     C ( 1.00)
        O              6.00     1.00000     O ( 1.00)
        Pt            10.00     1.00000     Pt( 1.00)

     No symmetry found



   Cartesian axes

     site n.     atom                  positions (alat units)
         1           C   tau(   1) = (   0.4991611   0.4347567   1.2070461  )
         2           O   tau(   2) = (   0.4991542   0.4322212   1.4109013  )
         3           Pt  tau(   3) = (   0.7542339   0.0091745   0.8413229  )
         4           Pt  tau(   4) = (   0.2441023   0.0091745   0.8413226  )
         5           Pt  tau(   5) = (   0.0000034   0.4416918   0.8391348  )
         6           Pt  tau(   6) = (   0.4991682   0.4417635   0.8776299  )
         7           Pt  tau(   7) = (   0.0000038   0.7300598   0.4308181  )
         8           Pt  tau(   8) = (   0.4991683   0.7202168   0.4447460  )
         9           Pt  tau(   9) = (   0.2524172   0.2949237   0.4386572  )
        10           Pt  tau(  10) = (   0.7459196   0.2949237   0.4386575  )

     number of k points=     1  Marzari-Vanderbilt smearing, width (Ry)=  0.0300
                       cart. coord. in units 2pi/alat
        k(    1) = (   0.0000000   0.0000000   0.0000000), wk =   2.0000000

     Dense  grid:   183417 G-vectors     FFT dimensions: (  60,  54, 240)

     Smooth grid:    58483 G-vectors     FFT dimensions: (  45,  36, 160)

     Estimated max dynamical RAM per process >     231.32MB

     Initial potential from superposition of free atoms
     Check: negative starting charge=   -0.003086

     starting charge   89.99859, renormalised to   90.00000

     negative rho (up, down):  3.086E-03 0.000E+00
     Starting wfc are   80 randomized atomic wfcs

     total cpu time spent up to now is        6.7 secs

     per-process dynamical memory:   339.3 Mb

     Self-consistent Calculation

     iteration #  1     ecut=    35.00 Ry     beta=0.70
     Davidson diagonalization with overlap
     ethr =  1.00E-02,  avg # of iterations =  8.0

     negative rho (up, down):  2.238E-03 0.000E+00

     add environment contribution to local potential
     polarization accuracy = 9.4E-12, # of iterations =  38

     total cpu time spent up to now is       16.5 secs

     total energy              =    -623.07788607 Ry
     Harris-Foulkes estimate   =    -624.45760611 Ry
     estimated scf accuracy    <       1.80056586 Ry
     electrostatic embedding   =       0.00000000 Ry
     correction to one-el term =       0.00000000 Ry

     iteration #  2     ecut=    35.00 Ry     beta=0.70
     Davidson diagonalization with overlap
     ethr =  2.00E-03,  avg # of iterations =  6.0

     negative rho (up, down):  1.417E-02 0.000E+00

     add environment contribution to local potential
     polarization accuracy = 8.8E-12, # of iterations =  38

     total cpu time spent up to now is       26.0 secs

     total energy              =    -621.97135722 Ry
     Harris-Foulkes estimate   =    -657.35588865 Ry
     estimated scf accuracy    <      14.76095025 Ry
     electrostatic embedding   =      -0.00373175 Ry
     correction to one-el term =      31.15305034 Ry

     iteration #  3     ecut=    35.00 Ry     beta=0.70
     Davidson diagonalization with overlap
     ethr =  2.00E-03,  avg # of iterations = 10.0

     negative rho (up, down):  1.575E-02 0.000E+00

     add environment contribution to local potential
     polarization accuracy = 7.6E-12, # of iterations =  32

     total cpu time spent up to now is       34.8 secs

     total energy              =    -622.98312783 Ry
     Harris-Foulkes estimate   =    -653.88281490 Ry
     estimated scf accuracy    <      25.19799926 Ry
     electrostatic embedding   =      -0.00664221 Ry
     correction to one-el term =      28.16861125 Ry

     iteration #  4     ecut=    35.00 Ry     beta=0.70
     Davidson diagonalization with overlap
     ethr =  2.00E-03,  avg # of iterations =  7.0

     negative rho (up, down):  8.022E-03 0.000E+00

     add environment contribution to local potential
     polarization accuracy = 9.6E-12, # of iterations =  32

     total cpu time spent up to now is       43.4 secs

     total energy              =    -623.88476052 Ry
     Harris-Foulkes estimate   =    -653.23592997 Ry
     estimated scf accuracy    <       6.57933758 Ry
     electrostatic embedding   =      -0.00096937 Ry
     correction to one-el term =      28.68102728 Ry

     iteration #  5     ecut=    35.00 Ry     beta=0.70
     Davidson diagonalization with overlap
     ethr =  2.00E-03,  avg # of iterations =  3.0

     negative rho (up, down):  7.079E-03 0.000E+00

     add environment contribution to local potential
     polarization accuracy = 9.1E-12, # of iterations =  33

     total cpu time spent up to now is       51.5 secs

     total energy              =    -624.06551596 Ry
     Harris-Foulkes estimate   =    -652.12166090 Ry
     estimated scf accuracy    <       0.47636588 Ry
     electrostatic embedding   =      -0.00247611 Ry
     correction to one-el term =      27.92603437 Ry

     iteration #  6     ecut=    35.00 Ry     beta=0.70
     Davidson diagonalization with overlap
     ethr =  5.29E-04,  avg # of iterations =  6.0

     negative rho (up, down):  5.717E-03 0.000E+00

     add environment contribution to local potential
     polarization accuracy = 8.3E-12, # of iterations =  31

     total cpu time spent up to now is       59.6 secs

     total energy              =    -624.11987961 Ry
     Harris-Foulkes estimate   =    -651.54827402 Ry
     estimated scf accuracy    <       0.14930969 Ry
     electrostatic embedding   =      -0.00306573 Ry
     correction to one-el term =      27.39631088 Ry

     iteration #  7     ecut=    35.00 Ry     beta=0.70
     Davidson diagonalization with overlap
     ethr =  1.66E-04,  avg # of iterations =  1.0

     negative rho (up, down):  3.121E-03 0.000E+00

     total cpu time spent up to now is       62.7 secs

     End of self-consistent calculation

          k = 0.0000 0.0000 0.0000 (  7286 PWs)   bands (ev):

   -29.1529 -15.2746 -13.4155 -12.6520 -11.9302 -11.9046 -11.8548 -11.1279
   -10.9768 -10.1671 -10.0402  -9.9404  -9.6467  -9.6402  -9.5392  -9.4155
    -8.7749  -8.7386  -8.6997  -8.4870  -8.3864  -8.3126  -8.2647  -8.2512
    -8.2256  -8.0592  -8.0174  -7.9515  -7.8548  -7.6196  -7.5078  -6.7618
    -6.6187  -6.5394  -6.1806  -6.1320  -5.9650  -5.9248  -5.7988  -5.5983
    -5.4321  -5.3873  -5.1696  -5.1643  -5.0749  -5.0704  -4.8912  -3.8693
    -3.4761  -3.3231  -2.9482  -2.3552  -2.2340  -1.3181  -0.9347  -0.8213
    -0.6602  -0.0680   0.5424   0.6132   0.8481   1.2113   2.1583   2.3333
     2.3794   2.7252   2.9676   3.1906   3.5049   3.5610   3.9837   4.0019
     4.3575   4.5599   4.8583   5.0260   5.2409   5.2611   5.3535   5.3593

     the Fermi energy is    -4.9919 ev

!    total energy              =    -624.11035393 Ry
     Harris-Foulkes estimate   =    -651.79285555 Ry
     estimated scf accuracy    <       0.03644278 Ry

     The total energy is the sum of the following terms:

     one-electron contribution =   -3994.86364747 Ry
     hartree contribution      =    2033.18127620 Ry
     xc contribution           =    -263.27933651 Ry
     ewald contribution        =    1573.20467954 Ry
     smearing contrib. (-TS)   =      -0.00391047 Ry
     electrostatic embedding   =      -0.00312356 Ry
     correction to one-el term =      27.65370835 Ry

     convergence has been achieved in   7 iterations

     negative rho (up, down):  3.121E-03 0.000E+00

     Forces acting on atoms (cartesian axes, Ry/au):

     atom    1 type  1   force =     0.00010793   -0.00754598    0.03085834
     atom    2 type  2   force =    -0.00004484    0.00312077    0.00257856
     atom    3 type  3   force =    -0.00601567    0.00483125    0.04665927
     atom    4 type  3   force =     0.00717371    0.00478519    0.04817945
     atom    5 type  3   force =    -0.00230791    0.01448977    0.00503112
     atom    6 type  3   force =     0.00097052    0.01954304    0.04309406
     atom    7 type  3   force =    -0.00220261   -0.01828336   -0.04905356
     atom    8 type  3   force =     0.00112290   -0.01844077   -0.03484609
     atom    9 type  3   force =     0.03322953   -0.00129313   -0.04655361
     atom   10 type  3   force =    -0.03203357   -0.00120677   -0.04594755

     Total force =     0.137300     Total SCF correction =     0.289466
     SCF correction compared to forces is large: reduce conv_thr to get better values

     Writing output data file pwscf.save
 
     init_run     :      6.17s CPU      6.37s WALL (       1 calls)
     electrons    :     53.62s CPU     56.67s WALL (       1 calls)
     forces       :      4.57s CPU      4.74s WALL (       1 calls)

     Called by init_run:
     wfcinit      :      0.41s CPU      0.41s WALL (       1 calls)
     potinit      :      2.19s CPU      2.20s WALL (       1 calls)

     Called by electrons:
     c_bands      :      9.92s CPU      9.96s WALL (       7 calls)
     sum_band     :      5.86s CPU      6.97s WALL (       7 calls)
     v_of_rho     :      2.70s CPU      2.76s WALL (       8 calls)
     newd         :      3.53s CPU      4.84s WALL (       8 calls)
     mix_rho      :      0.26s CPU      0.27s WALL (       7 calls)

     Called by c_bands:
     init_us_2    :      0.08s CPU      0.07s WALL (      15 calls)
     regterg      :      9.42s CPU      9.46s WALL (       7 calls)

     Called by sum_band:
     sum_band:bec :      0.00s CPU      0.00s WALL (       7 calls)
     addusdens    :      4.08s CPU      5.18s WALL (       7 calls)

     Called by *egterg:
     h_psi        :      7.29s CPU      7.28s WALL (      49 calls)
     s_psi        :      0.36s CPU      0.38s WALL (      49 calls)
     g_psi        :      0.07s CPU      0.07s WALL (      41 calls)
     rdiaghg      :      0.48s CPU      0.47s WALL (      48 calls)

     Called by h_psi:
     h_psi:pot    :      7.25s CPU      7.24s WALL (      49 calls)
     h_psi:calbec :      0.38s CPU      0.40s WALL (      49 calls)
     vloc_psi     :      6.48s CPU      6.46s WALL (      49 calls)
     add_vuspsi   :      0.39s CPU      0.38s WALL (      49 calls)

     General routines
     calbec       :      0.61s CPU      0.63s WALL (      60 calls)
     fft          :     14.60s CPU     14.71s WALL (    1032 calls)
     ffts         :      0.07s CPU      0.06s WALL (      15 calls)
     fftw         :      6.52s CPU      6.43s WALL (    1950 calls)
     interpolate  :      0.32s CPU      0.33s WALL (      15 calls)
     davcio       :      0.00s CPU      0.00s WALL (       1 calls)
 
     Parallel routines
     fft_scatter  :      3.40s CPU      3.48s WALL (    2997 calls)
 
     Environ routines
     calc_eelect  :      0.00s CPU      0.01s WALL (      14 calls)
     calc_velect  :     29.64s CPU     29.64s WALL (      12 calls)
     dielectric   :      0.23s CPU      0.24s WALL (       9 calls)
     calc_felect  :      0.12s CPU      0.12s WALL (       1 calls)
 
     PWSCF        :  1m 4.76s CPU     1m10.24s WALL

 
   This run was terminated on:  15:36:27   8Nov2017            

=------------------------------------------------------------------------------=
   JOB DONE.
=------------------------------------------------------------------------------=

%%%% IONS %%%%%%%%%%%%%%%%%%%%%%%%%%%%%%%%%%%%%%%%%%%%%%%%%%%%%%%%%%%%%%%%%%%%%%
 number of ions             =         10
 ionic center of charge     =      0.3882415     0.3750182     0.7201831
 total ionic charge         =    -90.0000000
 ionic dipole               =      0.0000000     0.0000000     0.0000000
 ionic quadrupole (pc)      =   -730.5101255  -614.6110457  -876.7220256
 ionic quadrupole (gauss)   =   -741.7601255  -625.8610457  -887.9720256
 ion   1 type =  1 coordinates =      5.3350841     4.6467234    12.9010299
 ion   2 type =  2 coordinates =      5.3350096     4.6196233    15.0798543
 ion   3 type =  3 coordinates =      8.0613271     0.0980580     8.9921429
 ion   4 type =  3 coordinates =      2.6089894     0.0980583     8.9921406
 ion   5 type =  3 coordinates =      0.0000366     4.7208463     8.9687569
 ion   6 type =  3 coordinates =      5.3351596     4.7216127     9.3801964
 ion   7 type =  3 coordinates =      0.0000411     7.8029520     4.6046265
 ion   8 type =  3 coordinates =      5.3351612     7.6977491     4.7534894
 ion   9 type =  3 coordinates =      2.6978606     3.1521739     4.6884123
 ion  10 type =  3 coordinates =      7.9724637     3.1521745     4.6884152

%%%% SYSTEM %%%%%%%%%%%%%%%%%%%%%%%%%%%%%%%%%%%%%%%%%%%%%%%%%%%%%%%%%%%%%%%%%%%%
 system is built from all present ionic types
 system defined dimension   =  0 
 system defined axis        =  3 
 system center              =      0.3882415     0.3750182     0.7201831 
 system width               =      1.5145225 

%%%% ELECTRONS %%%%%%%%%%%%%%%%%%%%%%%%%%%%%%%%%%%%%%%%%%%%%%%%%%%%%%%%%%%%%%%%%
 number of electrons        =         90
 total electronic charge    =     90.0000000
 number of spin components  =  1

%%%% BOUNDARY %%%%%%%%%%%%%%%%%%%%%%%%%%%%%%%%%%%%%%%%%%%%%%%%%%%%%%%%%%%%%%%%%%
 boundary mode              = full                 
 boundary is built as a function of a smooth density
 function type              =  1 
 using the optimal SCCS function with parameters 
 rhomax                     =      0.0050000 
 rhomin                     =      0.0001000 
 volume of the QM region    =   1521.3567510 
 surface of the QM region   =    250.0052301 

%%%% DIELECTRIC %%%%%%%%%%%%%%%%%%%%%%%%%%%%%%%%%%%%%%%%%%%%%%%%%%%%%%%%%%%%%%%%%
 dielectric build on homogeneous background
 environment bulk permitt.  =    100.0000000 
 dielectric flags
 need gradient              =  F 
 need factor depend. sqrt   =  F 
 need gradient of logarithm =  T 

%%%% COMPUTE ELECTROSTATIC POTENTIAL %%%%%%%%%%%%%%%%%%%%%%%%%%%%%%%%%%%%%%%%%%%
 Starting from polarization: rhoiter =      0.000000 jellium =      0.000000
 Iteration #          1
 delta_qm =   0.126282E-02 delta_en =   0.143206E-05 tol =   0.100000E-10
 Iteration #          2
 delta_qm =   0.135034E-02 delta_en =   0.153132E-05 tol =   0.100000E-10
 Iteration #          3
 delta_qm =   0.721967E-03 delta_en =   0.818727E-06 tol =   0.100000E-10
 Iteration #          4
 delta_qm =   0.575557E-03 delta_en =   0.652695E-06 tol =   0.100000E-10
 Iteration #          5
 delta_qm =   0.319594E-03 delta_en =   0.362427E-06 tol =   0.100000E-10
 Iteration #          6
 delta_qm =   0.249387E-03 delta_en =   0.282810E-06 tol =   0.100000E-10
 Iteration #          7
 delta_qm =   0.199127E-03 delta_en =   0.225814E-06 tol =   0.100000E-10
 Iteration #          8
 delta_qm =   0.126556E-03 delta_en =   0.143518E-06 tol =   0.100000E-10
 Iteration #          9
 delta_qm =   0.877161E-04 delta_en =   0.994720E-07 tol =   0.100000E-10
 Iteration #         10
 delta_qm =   0.736999E-04 delta_en =   0.835774E-07 tol =   0.100000E-10
 Iteration #         11
 delta_qm =   0.517918E-04 delta_en =   0.587331E-07 tol =   0.100000E-10
 Iteration #         12
 delta_qm =   0.331743E-04 delta_en =   0.376204E-07 tol =   0.100000E-10
 Iteration #         13
 delta_qm =   0.268686E-04 delta_en =   0.304696E-07 tol =   0.100000E-10
 Iteration #         14
 delta_qm =   0.207084E-04 delta_en =   0.234838E-07 tol =   0.100000E-10
 Iteration #         15
 delta_qm =   0.132330E-04 delta_en =   0.150065E-07 tol =   0.100000E-10
 Iteration #         16
 delta_qm =   0.970539E-05 delta_en =   0.110061E-07 tol =   0.100000E-10
 Iteration #         17
 delta_qm =   0.794509E-05 delta_en =   0.900992E-08 tol =   0.100000E-10
 Iteration #         18
 delta_qm =   0.535866E-05 delta_en =   0.607684E-08 tol =   0.100000E-10
 Iteration #         19
 delta_qm =   0.354482E-05 delta_en =   0.401991E-08 tol =   0.100000E-10
 Iteration #         20
 delta_qm =   0.292545E-05 delta_en =   0.331753E-08 tol =   0.100000E-10
 Iteration #         21
 delta_qm =   0.216293E-05 delta_en =   0.245282E-08 tol =   0.100000E-10
 Iteration #         22
 delta_qm =   0.137329E-05 delta_en =   0.155734E-08 tol =   0.100000E-10
 Iteration #         23
 delta_qm =   0.104610E-05 delta_en =   0.118631E-08 tol =   0.100000E-10
 Iteration #         24
 delta_qm =   0.833356E-06 delta_en =   0.945045E-09 tol =   0.100000E-10
 Iteration #         25
 delta_qm =   0.548261E-06 delta_en =   0.621740E-09 tol =   0.100000E-10
 Iteration #         26
 delta_qm =   0.376812E-06 delta_en =   0.427313E-09 tol =   0.100000E-10
 Iteration #         27
 delta_qm =   0.308527E-06 delta_en =   0.349877E-09 tol =   0.100000E-10
 Iteration #         28
 delta_qm =   0.218367E-06 delta_en =   0.247633E-09 tol =   0.100000E-10
 Iteration #         29
 delta_qm =   0.139786E-06 delta_en =   0.158520E-09 tol =   0.100000E-10
 Iteration #         30
 delta_qm =   0.109780E-06 delta_en =   0.124493E-09 tol =   0.100000E-10
 Iteration #         31
 delta_qm =   0.844424E-07 delta_en =   0.957596E-10 tol =   0.100000E-10
 Iteration #         32
 delta_qm =   0.542549E-07 delta_en =   0.615263E-10 tol =   0.100000E-10
 Iteration #         33
 delta_qm =   0.384925E-07 delta_en =   0.436514E-10 tol =   0.100000E-10
 Iteration #         34
 delta_qm =   0.311367E-07 delta_en =   0.353097E-10 tol =   0.100000E-10
 Iteration #         35
 delta_qm =   0.214972E-07 delta_en =   0.243783E-10 tol =   0.100000E-10
 Iteration #         36
 delta_qm =   0.142711E-07 delta_en =   0.161837E-10 tol =   0.100000E-10
 Iteration #         37
 delta_qm =   0.113005E-07 delta_en =   0.128151E-10 tol =   0.100000E-10
 Iteration #         38
 delta_qm =   0.829325E-08 delta_en =   0.940473E-11 tol =   0.100000E-10
 Charges are converged, EXIT

%%%% ELECTRONS %%%%%%%%%%%%%%%%%%%%%%%%%%%%%%%%%%%%%%%%%%%%%%%%%%%%%%%%%%%%%%%%%
 number of electrons        =         90
 total electronic charge    =     90.0000000
 number of spin components  =  1

%%%% BOUNDARY %%%%%%%%%%%%%%%%%%%%%%%%%%%%%%%%%%%%%%%%%%%%%%%%%%%%%%%%%%%%%%%%%%
 boundary mode              = full                 
 boundary is built as a function of a smooth density
 function type              =  1 
 using the optimal SCCS function with parameters 
 rhomax                     =      0.0050000 
 rhomin                     =      0.0001000 
 volume of the QM region    =   1503.4251998 
 surface of the QM region   =    272.5772447 

%%%% DIELECTRIC %%%%%%%%%%%%%%%%%%%%%%%%%%%%%%%%%%%%%%%%%%%%%%%%%%%%%%%%%%%%%%%%%
 dielectric build on homogeneous background
 environment bulk permitt.  =    100.0000000 
 dielectric flags
 need gradient              =  F 
 need factor depend. sqrt   =  F 
 need gradient of logarithm =  T 

%%%% COMPUTE ELECTROSTATIC POTENTIAL %%%%%%%%%%%%%%%%%%%%%%%%%%%%%%%%%%%%%%%%%%%
 Starting from polarization: rhoiter =      0.284344 jellium =      0.000000
 Iteration #          1
 delta_qm =   0.977588E-03 delta_en =   0.110861E-05 tol =   0.100000E-10
 Iteration #          2
 delta_qm =   0.466991E-03 delta_en =   0.529578E-06 tol =   0.100000E-10
 Iteration #          3
 delta_qm =   0.372214E-03 delta_en =   0.422099E-06 tol =   0.100000E-10
 Iteration #          4
 delta_qm =   0.269809E-03 delta_en =   0.305970E-06 tol =   0.100000E-10
 Iteration #          5
 delta_qm =   0.178524E-03 delta_en =   0.202450E-06 tol =   0.100000E-10
 Iteration #          6
 delta_qm =   0.129098E-03 delta_en =   0.146401E-06 tol =   0.100000E-10
 Iteration #          7
 delta_qm =   0.997521E-04 delta_en =   0.113121E-06 tol =   0.100000E-10
 Iteration #          8
 delta_qm =   0.687488E-04 delta_en =   0.779627E-07 tol =   0.100000E-10
 Iteration #          9
 delta_qm =   0.462535E-04 delta_en =   0.524525E-07 tol =   0.100000E-10
 Iteration #         10
 delta_qm =   0.355791E-04 delta_en =   0.403475E-07 tol =   0.100000E-10
 Iteration #         11
 delta_qm =   0.258413E-04 delta_en =   0.293047E-07 tol =   0.100000E-10
 Iteration #         12
 delta_qm =   0.170597E-04 delta_en =   0.193461E-07 tol =   0.100000E-10
 Iteration #         13
 delta_qm =   0.132984E-04 delta_en =   0.150807E-07 tol =   0.100000E-10
 Iteration #         14
 delta_qm =   0.109032E-04 delta_en =   0.123645E-07 tol =   0.100000E-10
 Iteration #         15
 delta_qm =   0.775493E-05 delta_en =   0.879427E-08 tol =   0.100000E-10
 Iteration #         16
 delta_qm =   0.553073E-05 delta_en =   0.627198E-08 tol =   0.100000E-10
 Iteration #         17
 delta_qm =   0.434293E-05 delta_en =   0.492498E-08 tol =   0.100000E-10
 Iteration #         18
 delta_qm =   0.316438E-05 delta_en =   0.358849E-08 tol =   0.100000E-10
 Iteration #         19
 delta_qm =   0.224414E-05 delta_en =   0.254491E-08 tol =   0.100000E-10
 Iteration #         20
 delta_qm =   0.183192E-05 delta_en =   0.207744E-08 tol =   0.100000E-10
 Iteration #         21
 delta_qm =   0.147605E-05 delta_en =   0.167387E-08 tol =   0.100000E-10
 Iteration #         22
 delta_qm =   0.107435E-05 delta_en =   0.121834E-08 tol =   0.100000E-10
 Iteration #         23
 delta_qm =   0.791128E-06 delta_en =   0.897157E-09 tol =   0.100000E-10
 Iteration #         24
 delta_qm =   0.603523E-06 delta_en =   0.684409E-09 tol =   0.100000E-10
 Iteration #         25
 delta_qm =   0.437002E-06 delta_en =   0.495570E-09 tol =   0.100000E-10
 Iteration #         26
 delta_qm =   0.318651E-06 delta_en =   0.361358E-09 tol =   0.100000E-10
 Iteration #         27
 delta_qm =   0.250633E-06 delta_en =   0.284224E-09 tol =   0.100000E-10
 Iteration #         28
 delta_qm =   0.191433E-06 delta_en =   0.217089E-09 tol =   0.100000E-10
 Iteration #         29
 delta_qm =   0.136823E-06 delta_en =   0.155160E-09 tol =   0.100000E-10
 Iteration #         30
 delta_qm =   0.988745E-07 delta_en =   0.112126E-09 tol =   0.100000E-10
 Iteration #         31
 delta_qm =   0.726546E-07 delta_en =   0.823920E-10 tol =   0.100000E-10
 Iteration #         32
 delta_qm =   0.518818E-07 delta_en =   0.588352E-10 tol =   0.100000E-10
 Iteration #         33
 delta_qm =   0.379075E-07 delta_en =   0.429880E-10 tol =   0.100000E-10
 Iteration #         34
 delta_qm =   0.289068E-07 delta_en =   0.327810E-10 tol =   0.100000E-10
 Iteration #         35
 delta_qm =   0.212604E-07 delta_en =   0.241097E-10 tol =   0.100000E-10
 Iteration #         36
 delta_qm =   0.150439E-07 delta_en =   0.170601E-10 tol =   0.100000E-10
 Iteration #         37
 delta_qm =   0.108562E-07 delta_en =   0.123111E-10 tol =   0.100000E-10
 Iteration #         38
 delta_qm =   0.780353E-08 delta_en =   0.884938E-11 tol =   0.100000E-10
 Charges are converged, EXIT

%%%% ELECTRONS %%%%%%%%%%%%%%%%%%%%%%%%%%%%%%%%%%%%%%%%%%%%%%%%%%%%%%%%%%%%%%%%%
 number of electrons        =         90
 total electronic charge    =     90.0000000
 number of spin components  =  1

%%%% BOUNDARY %%%%%%%%%%%%%%%%%%%%%%%%%%%%%%%%%%%%%%%%%%%%%%%%%%%%%%%%%%%%%%%%%%
 boundary mode              = full                 
 boundary is built as a function of a smooth density
 function type              =  1 
 using the optimal SCCS function with parameters 
 rhomax                     =      0.0050000 
 rhomin                     =      0.0001000 
 volume of the QM region    =   1497.1085115 
 surface of the QM region   =    274.0517030 

%%%% DIELECTRIC %%%%%%%%%%%%%%%%%%%%%%%%%%%%%%%%%%%%%%%%%%%%%%%%%%%%%%%%%%%%%%%%%
 dielectric build on homogeneous background
 environment bulk permitt.  =    100.0000000 
 dielectric flags
 need gradient              =  F 
 need factor depend. sqrt   =  F 
 need gradient of logarithm =  T 

%%%% COMPUTE ELECTROSTATIC POTENTIAL %%%%%%%%%%%%%%%%%%%%%%%%%%%%%%%%%%%%%%%%%%%
 Starting from polarization: rhoiter =      0.282936 jellium =      0.000000
 Iteration #          1
 delta_qm =   0.173660E-03 delta_en =   0.196934E-06 tol =   0.100000E-10
 Iteration #          2
 delta_qm =   0.841461E-04 delta_en =   0.954237E-07 tol =   0.100000E-10
 Iteration #          3
 delta_qm =   0.686792E-04 delta_en =   0.778838E-07 tol =   0.100000E-10
 Iteration #          4
 delta_qm =   0.480702E-04 delta_en =   0.545127E-07 tol =   0.100000E-10
 Iteration #          5
 delta_qm =   0.316599E-04 delta_en =   0.359030E-07 tol =   0.100000E-10
 Iteration #          6
 delta_qm =   0.237105E-04 delta_en =   0.268883E-07 tol =   0.100000E-10
 Iteration #          7
 delta_qm =   0.178535E-04 delta_en =   0.202463E-07 tol =   0.100000E-10
 Iteration #          8
 delta_qm =   0.120686E-04 delta_en =   0.136861E-07 tol =   0.100000E-10
 Iteration #          9
 delta_qm =   0.844918E-05 delta_en =   0.958157E-08 tol =   0.100000E-10
 Iteration #         10
 delta_qm =   0.648658E-05 delta_en =   0.735593E-08 tol =   0.100000E-10
 Iteration #         11
 delta_qm =   0.455346E-05 delta_en =   0.516373E-08 tol =   0.100000E-10
 Iteration #         12
 delta_qm =   0.306195E-05 delta_en =   0.347232E-08 tol =   0.100000E-10
 Iteration #         13
 delta_qm =   0.241538E-05 delta_en =   0.273909E-08 tol =   0.100000E-10
 Iteration #         14
 delta_qm =   0.188052E-05 delta_en =   0.213255E-08 tol =   0.100000E-10
 Iteration #         15
 delta_qm =   0.128931E-05 delta_en =   0.146211E-08 tol =   0.100000E-10
 Iteration #         16
 delta_qm =   0.933730E-06 delta_en =   0.105887E-08 tol =   0.100000E-10
 Iteration #         17
 delta_qm =   0.730622E-06 delta_en =   0.828543E-09 tol =   0.100000E-10
 Iteration #         18
 delta_qm =   0.513835E-06 delta_en =   0.582700E-09 tol =   0.100000E-10
 Iteration #         19
 delta_qm =   0.356635E-06 delta_en =   0.404432E-09 tol =   0.100000E-10
 Iteration #         20
 delta_qm =   0.286854E-06 delta_en =   0.325299E-09 tol =   0.100000E-10
 Iteration #         21
 delta_qm =   0.221696E-06 delta_en =   0.251409E-09 tol =   0.100000E-10
 Iteration #         22
 delta_qm =   0.155354E-06 delta_en =   0.176175E-09 tol =   0.100000E-10
 Iteration #         23
 delta_qm =   0.114707E-06 delta_en =   0.130080E-09 tol =   0.100000E-10
 Iteration #         24
 delta_qm =   0.869151E-07 delta_en =   0.985637E-10 tol =   0.100000E-10
 Iteration #         25
 delta_qm =   0.604964E-07 delta_en =   0.686043E-10 tol =   0.100000E-10
 Iteration #         26
 delta_qm =   0.434960E-07 delta_en =   0.493255E-10 tol =   0.100000E-10
 Iteration #         27
 delta_qm =   0.345215E-07 delta_en =   0.391481E-10 tol =   0.100000E-10
 Iteration #         28
 delta_qm =   0.256218E-07 delta_en =   0.290557E-10 tol =   0.100000E-10
 Iteration #         29
 delta_qm =   0.176431E-07 delta_en =   0.200077E-10 tol =   0.100000E-10
 Iteration #         30
 delta_qm =   0.128535E-07 delta_en =   0.145762E-10 tol =   0.100000E-10
 Iteration #         31
 delta_qm =   0.954629E-08 delta_en =   0.108257E-10 tol =   0.100000E-10
 Iteration #         32
 delta_qm =   0.673885E-08 delta_en =   0.764201E-11 tol =   0.100000E-10
 Charges are converged, EXIT

%%%% ELECTRONS %%%%%%%%%%%%%%%%%%%%%%%%%%%%%%%%%%%%%%%%%%%%%%%%%%%%%%%%%%%%%%%%%
 number of electrons        =         90
 total electronic charge    =     90.0000000
 number of spin components  =  1

%%%% BOUNDARY %%%%%%%%%%%%%%%%%%%%%%%%%%%%%%%%%%%%%%%%%%%%%%%%%%%%%%%%%%%%%%%%%%
 boundary mode              = full                 
 boundary is built as a function of a smooth density
 function type              =  1 
 using the optimal SCCS function with parameters 
 rhomax                     =      0.0050000 
 rhomin                     =      0.0001000 
 volume of the QM region    =   1486.6252367 
 surface of the QM region   =    259.3900240 

%%%% DIELECTRIC %%%%%%%%%%%%%%%%%%%%%%%%%%%%%%%%%%%%%%%%%%%%%%%%%%%%%%%%%%%%%%%%%
 dielectric build on homogeneous background
 environment bulk permitt.  =    100.0000000 
 dielectric flags
 need gradient              =  F 
 need factor depend. sqrt   =  F 
 need gradient of logarithm =  T 

%%%% COMPUTE ELECTROSTATIC POTENTIAL %%%%%%%%%%%%%%%%%%%%%%%%%%%%%%%%%%%%%%%%%%%
 Starting from polarization: rhoiter =      0.279612 jellium =      0.000000
 Iteration #          1
 delta_qm =   0.179488E-03 delta_en =   0.203543E-06 tol =   0.100000E-10
 Iteration #          2
 delta_qm =   0.917431E-04 delta_en =   0.104039E-06 tol =   0.100000E-10
 Iteration #          3
 delta_qm =   0.697035E-04 delta_en =   0.790454E-07 tol =   0.100000E-10
 Iteration #          4
 delta_qm =   0.498612E-04 delta_en =   0.565438E-07 tol =   0.100000E-10
 Iteration #          5
 delta_qm =   0.335391E-04 delta_en =   0.380341E-07 tol =   0.100000E-10
 Iteration #          6
 delta_qm =   0.238683E-04 delta_en =   0.270672E-07 tol =   0.100000E-10
 Iteration #          7
 delta_qm =   0.174071E-04 delta_en =   0.197401E-07 tol =   0.100000E-10
 Iteration #          8
 delta_qm =   0.121140E-04 delta_en =   0.137376E-07 tol =   0.100000E-10
 Iteration #          9
 delta_qm =   0.853809E-05 delta_en =   0.968239E-08 tol =   0.100000E-10
 Iteration #         10
 delta_qm =   0.616185E-05 delta_en =   0.698768E-08 tol =   0.100000E-10
 Iteration #         11
 delta_qm =   0.428799E-05 delta_en =   0.486267E-08 tol =   0.100000E-10
 Iteration #         12
 delta_qm =   0.314637E-05 delta_en =   0.356806E-08 tol =   0.100000E-10
 Iteration #         13
 delta_qm =   0.250343E-05 delta_en =   0.283895E-08 tol =   0.100000E-10
 Iteration #         14
 delta_qm =   0.187640E-05 delta_en =   0.212788E-08 tol =   0.100000E-10
 Iteration #         15
 delta_qm =   0.134798E-05 delta_en =   0.152864E-08 tol =   0.100000E-10
 Iteration #         16
 delta_qm =   0.102555E-05 delta_en =   0.116300E-08 tol =   0.100000E-10
 Iteration #         17
 delta_qm =   0.767999E-06 delta_en =   0.870929E-09 tol =   0.100000E-10
 Iteration #         18
 delta_qm =   0.545824E-06 delta_en =   0.618977E-09 tol =   0.100000E-10
 Iteration #         19
 delta_qm =   0.419332E-06 delta_en =   0.475533E-09 tol =   0.100000E-10
 Iteration #         20
 delta_qm =   0.339966E-06 delta_en =   0.385529E-09 tol =   0.100000E-10
 Iteration #         21
 delta_qm =   0.256177E-06 delta_en =   0.290511E-09 tol =   0.100000E-10
 Iteration #         22
 delta_qm =   0.185622E-06 delta_en =   0.210500E-09 tol =   0.100000E-10
 Iteration #         23
 delta_qm =   0.139091E-06 delta_en =   0.157732E-09 tol =   0.100000E-10
 Iteration #         24
 delta_qm =   0.102854E-06 delta_en =   0.116639E-09 tol =   0.100000E-10
 Iteration #         25
 delta_qm =   0.741215E-07 delta_en =   0.840555E-10 tol =   0.100000E-10
 Iteration #         26
 delta_qm =   0.559625E-07 delta_en =   0.634628E-10 tol =   0.100000E-10
 Iteration #         27
 delta_qm =   0.430357E-07 delta_en =   0.488035E-10 tol =   0.100000E-10
 Iteration #         28
 delta_qm =   0.314793E-07 delta_en =   0.356983E-10 tol =   0.100000E-10
 Iteration #         29
 delta_qm =   0.225617E-07 delta_en =   0.255855E-10 tol =   0.100000E-10
 Iteration #         30
 delta_qm =   0.164324E-07 delta_en =   0.186347E-10 tol =   0.100000E-10
 Iteration #         31
 delta_qm =   0.118008E-07 delta_en =   0.133824E-10 tol =   0.100000E-10
 Iteration #         32
 delta_qm =   0.846413E-08 delta_en =   0.959852E-11 tol =   0.100000E-10
 Charges are converged, EXIT

%%%% ELECTRONS %%%%%%%%%%%%%%%%%%%%%%%%%%%%%%%%%%%%%%%%%%%%%%%%%%%%%%%%%%%%%%%%%
 number of electrons        =         90
 total electronic charge    =     90.0000000
 number of spin components  =  1

%%%% BOUNDARY %%%%%%%%%%%%%%%%%%%%%%%%%%%%%%%%%%%%%%%%%%%%%%%%%%%%%%%%%%%%%%%%%%
 boundary mode              = full                 
 boundary is built as a function of a smooth density
 function type              =  1 
 using the optimal SCCS function with parameters 
 rhomax                     =      0.0050000 
 rhomin                     =      0.0001000 
 volume of the QM region    =   1475.3729493 
 surface of the QM region   =    258.1663846 

%%%% DIELECTRIC %%%%%%%%%%%%%%%%%%%%%%%%%%%%%%%%%%%%%%%%%%%%%%%%%%%%%%%%%%%%%%%%%
 dielectric build on homogeneous background
 environment bulk permitt.  =    100.0000000 
 dielectric flags
 need gradient              =  F 
 need factor depend. sqrt   =  F 
 need gradient of logarithm =  T 

%%%% COMPUTE ELECTROSTATIC POTENTIAL %%%%%%%%%%%%%%%%%%%%%%%%%%%%%%%%%%%%%%%%%%%
 Starting from polarization: rhoiter =      0.272893 jellium =      0.000000
 Iteration #          1
 delta_qm =   0.117993E-03 delta_en =   0.133807E-06 tol =   0.100000E-10
 Iteration #          2
 delta_qm =   0.634630E-04 delta_en =   0.719685E-07 tol =   0.100000E-10
 Iteration #          3
 delta_qm =   0.493729E-04 delta_en =   0.559900E-07 tol =   0.100000E-10
 Iteration #          4
 delta_qm =   0.331592E-04 delta_en =   0.376033E-07 tol =   0.100000E-10
 Iteration #          5
 delta_qm =   0.221545E-04 delta_en =   0.251237E-07 tol =   0.100000E-10
 Iteration #          6
 delta_qm =   0.163078E-04 delta_en =   0.184934E-07 tol =   0.100000E-10
 Iteration #          7
 delta_qm =   0.118403E-04 delta_en =   0.134272E-07 tol =   0.100000E-10
 Iteration #          8
 delta_qm =   0.819036E-05 delta_en =   0.928806E-08 tol =   0.100000E-10
 Iteration #          9
 delta_qm =   0.595758E-05 delta_en =   0.675604E-08 tol =   0.100000E-10
 Iteration #         10
 delta_qm =   0.453213E-05 delta_en =   0.513954E-08 tol =   0.100000E-10
 Iteration #         11
 delta_qm =   0.339361E-05 delta_en =   0.384843E-08 tol =   0.100000E-10
 Iteration #         12
 delta_qm =   0.267676E-05 delta_en =   0.303551E-08 tol =   0.100000E-10
 Iteration #         13
 delta_qm =   0.219193E-05 delta_en =   0.248570E-08 tol =   0.100000E-10
 Iteration #         14
 delta_qm =   0.171333E-05 delta_en =   0.194296E-08 tol =   0.100000E-10
 Iteration #         15
 delta_qm =   0.131357E-05 delta_en =   0.148962E-08 tol =   0.100000E-10
 Iteration #         16
 delta_qm =   0.102477E-05 delta_en =   0.116211E-08 tol =   0.100000E-10
 Iteration #         17
 delta_qm =   0.782065E-06 delta_en =   0.886879E-09 tol =   0.100000E-10
 Iteration #         18
 delta_qm =   0.589527E-06 delta_en =   0.668537E-09 tol =   0.100000E-10
 Iteration #         19
 delta_qm =   0.465561E-06 delta_en =   0.527957E-09 tol =   0.100000E-10
 Iteration #         20
 delta_qm =   0.373358E-06 delta_en =   0.423396E-09 tol =   0.100000E-10
 Iteration #         21
 delta_qm =   0.287694E-06 delta_en =   0.326251E-09 tol =   0.100000E-10
 Iteration #         22
 delta_qm =   0.215528E-06 delta_en =   0.244414E-09 tol =   0.100000E-10
 Iteration #         23
 delta_qm =   0.161003E-06 delta_en =   0.182582E-09 tol =   0.100000E-10
 Iteration #         24
 delta_qm =   0.119925E-06 delta_en =   0.135997E-09 tol =   0.100000E-10
 Iteration #         25
 delta_qm =   0.898967E-07 delta_en =   0.101945E-09 tol =   0.100000E-10
 Iteration #         26
 delta_qm =   0.681037E-07 delta_en =   0.772312E-10 tol =   0.100000E-10
 Iteration #         27
 delta_qm =   0.506956E-07 delta_en =   0.574900E-10 tol =   0.100000E-10
 Iteration #         28
 delta_qm =   0.368291E-07 delta_en =   0.417650E-10 tol =   0.100000E-10
 Iteration #         29
 delta_qm =   0.270637E-07 delta_en =   0.306909E-10 tol =   0.100000E-10
 Iteration #         30
 delta_qm =   0.202990E-07 delta_en =   0.230195E-10 tol =   0.100000E-10
 Iteration #         31
 delta_qm =   0.150335E-07 delta_en =   0.170484E-10 tol =   0.100000E-10
 Iteration #         32
 delta_qm =   0.109313E-07 delta_en =   0.123964E-10 tol =   0.100000E-10
 Iteration #         33
 delta_qm =   0.801807E-08 delta_en =   0.909267E-11 tol =   0.100000E-10
 Charges are converged, EXIT

%%%% ELECTRONS %%%%%%%%%%%%%%%%%%%%%%%%%%%%%%%%%%%%%%%%%%%%%%%%%%%%%%%%%%%%%%%%%
 number of electrons        =         90
 total electronic charge    =     90.0000000
 number of spin components  =  1

%%%% BOUNDARY %%%%%%%%%%%%%%%%%%%%%%%%%%%%%%%%%%%%%%%%%%%%%%%%%%%%%%%%%%%%%%%%%%
 boundary mode              = full                 
 boundary is built as a function of a smooth density
 function type              =  1 
 using the optimal SCCS function with parameters 
 rhomax                     =      0.0050000 
 rhomin                     =      0.0001000 
 volume of the QM region    =   1476.0852360 
 surface of the QM region   =    257.9790935 

%%%% DIELECTRIC %%%%%%%%%%%%%%%%%%%%%%%%%%%%%%%%%%%%%%%%%%%%%%%%%%%%%%%%%%%%%%%%%
 dielectric build on homogeneous background
 environment bulk permitt.  =    100.0000000 
 dielectric flags
 need gradient              =  F 
 need factor depend. sqrt   =  F 
 need gradient of logarithm =  T 

%%%% COMPUTE ELECTROSTATIC POTENTIAL %%%%%%%%%%%%%%%%%%%%%%%%%%%%%%%%%%%%%%%%%%%
 Starting from polarization: rhoiter =      0.267705 jellium =      0.000000
 Iteration #          1
 delta_qm =   0.435402E-04 delta_en =   0.493755E-07 tol =   0.100000E-10
 Iteration #          2
 delta_qm =   0.232563E-04 delta_en =   0.263732E-07 tol =   0.100000E-10
 Iteration #          3
 delta_qm =   0.138799E-04 delta_en =   0.157401E-07 tol =   0.100000E-10
 Iteration #          4
 delta_qm =   0.100551E-04 delta_en =   0.114027E-07 tol =   0.100000E-10
 Iteration #          5
 delta_qm =   0.686887E-05 delta_en =   0.778946E-08 tol =   0.100000E-10
 Iteration #          6
 delta_qm =   0.452123E-05 delta_en =   0.512718E-08 tol =   0.100000E-10
 Iteration #          7
 delta_qm =   0.319066E-05 delta_en =   0.361828E-08 tol =   0.100000E-10
 Iteration #          8
 delta_qm =   0.241433E-05 delta_en =   0.273791E-08 tol =   0.100000E-10
 Iteration #          9
 delta_qm =   0.181312E-05 delta_en =   0.205612E-08 tol =   0.100000E-10
 Iteration #         10
 delta_qm =   0.137646E-05 delta_en =   0.156094E-08 tol =   0.100000E-10
 Iteration #         11
 delta_qm =   0.110358E-05 delta_en =   0.125149E-08 tol =   0.100000E-10
 Iteration #         12
 delta_qm =   0.907776E-06 delta_en =   0.102944E-08 tol =   0.100000E-10
 Iteration #         13
 delta_qm =   0.740929E-06 delta_en =   0.840231E-09 tol =   0.100000E-10
 Iteration #         14
 delta_qm =   0.605868E-06 delta_en =   0.687068E-09 tol =   0.100000E-10
 Iteration #         15
 delta_qm =   0.501416E-06 delta_en =   0.568617E-09 tol =   0.100000E-10
 Iteration #         16
 delta_qm =   0.413118E-06 delta_en =   0.468485E-09 tol =   0.100000E-10
 Iteration #         17
 delta_qm =   0.333608E-06 delta_en =   0.378319E-09 tol =   0.100000E-10
 Iteration #         18
 delta_qm =   0.265386E-06 delta_en =   0.300954E-09 tol =   0.100000E-10
 Iteration #         19
 delta_qm =   0.210001E-06 delta_en =   0.238145E-09 tol =   0.100000E-10
 Iteration #         20
 delta_qm =   0.164789E-06 delta_en =   0.186875E-09 tol =   0.100000E-10
 Iteration #         21
 delta_qm =   0.127489E-06 delta_en =   0.144575E-09 tol =   0.100000E-10
 Iteration #         22
 delta_qm =   0.978432E-07 delta_en =   0.110956E-09 tol =   0.100000E-10
 Iteration #         23
 delta_qm =   0.752426E-07 delta_en =   0.853269E-10 tol =   0.100000E-10
 Iteration #         24
 delta_qm =   0.578518E-07 delta_en =   0.656053E-10 tol =   0.100000E-10
 Iteration #         25
 delta_qm =   0.440137E-07 delta_en =   0.499125E-10 tol =   0.100000E-10
 Iteration #         26
 delta_qm =   0.330175E-07 delta_en =   0.374426E-10 tol =   0.100000E-10
 Iteration #         27
 delta_qm =   0.245756E-07 delta_en =   0.278693E-10 tol =   0.100000E-10
 Iteration #         28
 delta_qm =   0.182776E-07 delta_en =   0.207273E-10 tol =   0.100000E-10
 Iteration #         29
 delta_qm =   0.135754E-07 delta_en =   0.153949E-10 tol =   0.100000E-10
 Iteration #         30
 delta_qm =   0.100064E-07 delta_en =   0.113474E-10 tol =   0.100000E-10
 Iteration #         31
 delta_qm =   0.730169E-08 delta_en =   0.828029E-11 tol =   0.100000E-10
 Charges are converged, EXIT

%%%% ELECTRONS %%%%%%%%%%%%%%%%%%%%%%%%%%%%%%%%%%%%%%%%%%%%%%%%%%%%%%%%%%%%%%%%%
 number of electrons        =         90
 total electronic charge    =     90.0000000
 number of spin components  =  1

%%%% BOUNDARY %%%%%%%%%%%%%%%%%%%%%%%%%%%%%%%%%%%%%%%%%%%%%%%%%%%%%%%%%%%%%%%%%%
 boundary mode              = full                 
 boundary is built as a function of a smooth density
 function type              =  1 
 using the optimal SCCS function with parameters 
 rhomax                     =      0.0050000 
 rhomin                     =      0.0001000 
 volume of the QM region    =   1476.0852360 
 surface of the QM region   =    257.9790935 

%%%% DIELECTRIC %%%%%%%%%%%%%%%%%%%%%%%%%%%%%%%%%%%%%%%%%%%%%%%%%%%%%%%%%%%%%%%%%
 dielectric build on homogeneous background
 environment bulk permitt.  =    100.0000000 
 dielectric flags
 need gradient              =  F 
 need factor depend. sqrt   =  F 
 need gradient of logarithm =  T 
