
     Program PWSCF v.6.1 (svn rev. 13369) starts on 19Oct2017 at 16:29: 9 

     This program is part of the open-source Quantum ESPRESSO suite
     for quantum simulation of materials; please cite
         "P. Giannozzi et al., J. Phys.:Condens. Matter 21 395502 (2009);
          URL http://www.quantum-espresso.org", 
     in publications or presentations arising from this work. More details at
     http://www.quantum-espresso.org/quote

     Parallel version (MPI), running on     1 processors
     Reading input from charged.in

     Current dimensions of program PWSCF are:
     Max number of different atomic species (ntypx) = 10
     Max number of k-points (npk) =  40000
     Max angular momentum in pseudopotentials (lmaxx) =  3
     Message from routine  environ_checkin    :
      use some old legacy code for environ
               file C.pbe-rrkjus.UPF: wavefunction(s)  2S 2P renormalized
               file O.pbe-rrkjus.UPF: wavefunction(s)  2S renormalized

     gamma-point specific algorithms are used

     Subspace diagonalization in iterative solution of the eigenvalue problem:
     a serial algorithm will be used

 
     G-vector sticks info
     --------------------
     sticks:   dense  smooth     PW     G-vecs:    dense   smooth      PW
     Sum        2205    1099    269               330909   116965   14571
 


     bravais-lattice index     =            8
     lattice parameter (alat)  =      10.6881  a.u.
     unit-cell volume          =    4181.1215 (a.u.)^3
     number of atoms/cell      =           10
     number of atomic types    =            3
     number of electrons       =        89.00
     number of Kohn-Sham states=           80
     kinetic-energy cutoff     =      35.0000  Ry
     charge density cutoff     =     280.0000  Ry
     convergence threshold     =      5.0E-02
     mixing beta               =       0.7000
     number of iterations used =            8  plain     mixing
     Exchange-correlation      = PBE ( 1  4  3  4 0 0)
 

     Environ Module
     ==============

     Plese cite
         O. Andreussi, I. Dabo and N. Marzari, J. Chem. Phys. 136, 064102 (2012)         
     in publications or presentations arising from this work.

     compensation onset threshold      =               0.1000E+03 
     switching function adopted        =                     SCCS 
     density limit for vacuum region   =               0.5000E-02 
     density limit for bulk solvent    =               0.1000E-03 
     static permittivity               =                   100.00 
     epsilon calculation mode          =               electronic 

     Electrostatic Setup
     -------------------
     electrostatic problem to solve    = generalized              
     numerical solver adopted          = iterative                
     type of auxiliary density adopted = full                     
     type of core tool for poisson     = fft                      
     type of core tool for s(r) deriv  = fd                       
     type of numerical differentiator  =            central diff. 
     number of points in num. diff.    =                        2 



     celldm(1)=  10.688100  celldm(2)=   0.866025  celldm(3)=   3.954220
     celldm(4)=   0.000000  celldm(5)=   0.000000  celldm(6)=   0.000000

     crystal axes: (cart. coord. in units of alat)
               a(1) = (   1.000000   0.000000   0.000000 )  
               a(2) = (   0.000000   0.866025   0.000000 )  
               a(3) = (   0.000000   0.000000   3.954220 )  

     reciprocal axes: (cart. coord. in units 2 pi/alat)
               b(1) = (  1.000000  0.000000  0.000000 )  
               b(2) = (  0.000000  1.154701  0.000000 )  
               b(3) = (  0.000000  0.000000  0.252894 )  


     PseudoPot. # 1 for C  read from file:
     /home/andreo/PWSCF/espresso-6.1-Environ-1.0/Environ/tests/../..//pseudo/C.pbe-rrkjus.UPF
     MD5 check sum: 00fb224312de0c5b6853bd333518df6f
     Pseudo is Ultrasoft, Zval =  4.0
     Generated by new atomic code, or converted to UPF format
     Using radial grid of  627 points,  4 beta functions with: 
                l(1) =   0
                l(2) =   0
                l(3) =   1
                l(4) =   1
     Q(r) pseudized with 0 coefficients 


     PseudoPot. # 2 for O  read from file:
     /home/andreo/PWSCF/espresso-6.1-Environ-1.0/Environ/tests/../..//pseudo/O.pbe-rrkjus.UPF
     MD5 check sum: 390ba29e75625707450f3bd3f0eb6be9
     Pseudo is Ultrasoft, Zval =  6.0
     Generated by new atomic code, or converted to UPF format
     Using radial grid of 1269 points,  4 beta functions with: 
                l(1) =   0
                l(2) =   0
                l(3) =   1
                l(4) =   1
     Q(r) pseudized with 0 coefficients 


     PseudoPot. # 3 for Pt read from file:
     /home/andreo/PWSCF/espresso-6.1-Environ-1.0/Environ/tests/../..//pseudo/Pt.pbe-n-rrkjus_psl.0.1.UPF
     MD5 check sum: df5be8f5ed4f66d4aed38ca70ec8d507
     Pseudo is Ultrasoft + core correction, Zval = 10.0
     Generated using "atomic" code by A. Dal Corso  v.5.0.2 svn rev. 9415
     Using radial grid of 1277 points,  6 beta functions with: 
                l(1) =   0
                l(2) =   0
                l(3) =   1
                l(4) =   1
                l(5) =   2
                l(6) =   2
     Q(r) pseudized with 0 coefficients 


     atomic species   valence    mass     pseudopotential
        C              4.00     1.00000     C ( 1.00)
        O              6.00     1.00000     O ( 1.00)
        Pt            10.00     1.00000     Pt( 1.00)

     No symmetry found



   Cartesian axes

     site n.     atom                  positions (alat units)
         1           C   tau(   1) = (   0.4991611   0.4347567   1.2070461  )
         2           O   tau(   2) = (   0.4991542   0.4322212   1.4109013  )
         3           Pt  tau(   3) = (   0.7542339   0.0091745   0.8413229  )
         4           Pt  tau(   4) = (   0.2441023   0.0091745   0.8413226  )
         5           Pt  tau(   5) = (   0.0000034   0.4416918   0.8391348  )
         6           Pt  tau(   6) = (   0.4991682   0.4417635   0.8776299  )
         7           Pt  tau(   7) = (   0.0000038   0.7300598   0.4308181  )
         8           Pt  tau(   8) = (   0.4991683   0.7202168   0.4447460  )
         9           Pt  tau(   9) = (   0.2524172   0.2949237   0.4386572  )
        10           Pt  tau(  10) = (   0.7459196   0.2949237   0.4386575  )

     number of k points=     1  Marzari-Vanderbilt smearing, width (Ry)=  0.0300
                       cart. coord. in units 2pi/alat
        k(    1) = (   0.0000000   0.0000000   0.0000000), wk =   2.0000000

     Dense  grid:   165455 G-vectors     FFT dimensions: (  60,  50, 225)

     Smooth grid:    58483 G-vectors     FFT dimensions: (  45,  36, 160)

     Estimated max dynamical RAM per process >     216.67MB

     Initial potential from superposition of free atoms
     Check: negative starting charge=   -0.001782

     starting charge   89.99859, renormalised to   89.00000

     negative rho (up, down):  1.762E-03 0.000E+00
     Starting wfc are   80 randomized atomic wfcs

     total cpu time spent up to now is        5.6 secs

     per-process dynamical memory:   288.3 Mb

     Self-consistent Calculation

     iteration #  1     ecut=    35.00 Ry     beta=0.70
     Davidson diagonalization with overlap
     ethr =  1.00E-02,  avg # of iterations =  5.0

     negative rho (up, down):  1.526E-03 0.000E+00

     add environment contribution to local potential
     polarization accuracy = 8.5E-12, # of iterations =  55

     total cpu time spent up to now is       15.5 secs

     total energy              =    -622.68843633 Ry
     Harris-Foulkes estimate   =    -624.21108732 Ry
     estimated scf accuracy    <       1.86594048 Ry
     electrostatic embedding   =       0.03381190 Ry
     correction to one-el term =       0.00000000 Ry

     iteration #  2     ecut=    35.00 Ry     beta=0.70
     Davidson diagonalization with overlap
     ethr =  2.10E-03,  avg # of iterations = 17.0

     negative rho (up, down):  2.241E-02 0.000E+00

     total cpu time spent up to now is       20.8 secs

     total energy              =    -613.05718680 Ry
     Harris-Foulkes estimate   =    -641.34966896 Ry
     estimated scf accuracy    <     312.86121943 Ry
     electrostatic embedding   =       0.05288508 Ry
     correction to one-el term =       5.27740251 Ry

     iteration #  3     ecut=    35.00 Ry     beta=0.70
     Davidson diagonalization with overlap
     ethr =  2.10E-03,  avg # of iterations =  7.0

     negative rho (up, down):  1.033E-02 0.000E+00

     add environment contribution to local potential
     polarization accuracy = 9.0E-12, # of iterations =  80

     total cpu time spent up to now is       34.0 secs

     total energy              =    -623.75593559 Ry
     Harris-Foulkes estimate   =    -630.12265605 Ry
     estimated scf accuracy    <       7.49576733 Ry
     electrostatic embedding   =       0.14099826 Ry
     correction to one-el term =       5.24229339 Ry

     iteration #  4     ecut=    35.00 Ry     beta=0.70
     Davidson diagonalization with overlap
     ethr =  2.10E-03,  avg # of iterations =  7.0

     negative rho (up, down):  6.151E-03 0.000E+00

     add environment contribution to local potential
     polarization accuracy = 8.9E-12, # of iterations =  71

     total cpu time spent up to now is       46.3 secs

     total energy              =    -623.21284673 Ry
     Harris-Foulkes estimate   =    -630.99097601 Ry
     estimated scf accuracy    <      33.25867290 Ry
     electrostatic embedding   =       0.16379934 Ry
     correction to one-el term =       5.80535376 Ry

     iteration #  5     ecut=    35.00 Ry     beta=0.70
     Davidson diagonalization with overlap
     ethr =  2.10E-03,  avg # of iterations =  4.0

     negative rho (up, down):  3.353E-03 0.000E+00

     add environment contribution to local potential
     polarization accuracy = 9.9E-12, # of iterations =  76

     total cpu time spent up to now is       58.3 secs

     total energy              =    -623.88105092 Ry
     Harris-Foulkes estimate   =    -627.71862617 Ry
     estimated scf accuracy    <       4.70311278 Ry
     electrostatic embedding   =       0.12502635 Ry
     correction to one-el term =       3.43908570 Ry

     iteration #  6     ecut=    35.00 Ry     beta=0.70
     Davidson diagonalization with overlap
     ethr =  2.10E-03,  avg # of iterations =  3.0

     negative rho (up, down):  4.469E-03 0.000E+00

     add environment contribution to local potential
     polarization accuracy = 9.3E-12, # of iterations =  65

     total cpu time spent up to now is       69.0 secs

     total energy              =    -624.58173830 Ry
     Harris-Foulkes estimate   =    -625.22806979 Ry
     estimated scf accuracy    <       4.77273105 Ry
     electrostatic embedding   =       0.10085960 Ry
     correction to one-el term =       0.46983429 Ry

     iteration #  7     ecut=    35.00 Ry     beta=0.70
     Davidson diagonalization with overlap
     ethr =  2.10E-03,  avg # of iterations =  1.0

     negative rho (up, down):  4.521E-03 0.000E+00

     add environment contribution to local potential
     polarization accuracy = 9.3E-12, # of iterations =  77

     total cpu time spent up to now is       80.9 secs

     total energy              =    -624.82382172 Ry
     Harris-Foulkes estimate   =    -624.44288462 Ry
     estimated scf accuracy    <       3.92946241 Ry
     electrostatic embedding   =       0.08008672 Ry
     correction to one-el term =      -0.53442566 Ry

     iteration #  8     ecut=    35.00 Ry     beta=0.70
     Davidson diagonalization with overlap
     ethr =  2.10E-03,  avg # of iterations =  2.0

     negative rho (up, down):  3.871E-03 0.000E+00

     add environment contribution to local potential
     polarization accuracy = 8.6E-12, # of iterations =  77

     total cpu time spent up to now is       92.9 secs

     total energy              =    -624.95748288 Ry
     Harris-Foulkes estimate   =    -622.47281090 Ry
     estimated scf accuracy    <       3.35447463 Ry
     electrostatic embedding   =       0.05003896 Ry
     correction to one-el term =      -2.60724461 Ry

     iteration #  9     ecut=    35.00 Ry     beta=0.70
     Davidson diagonalization with overlap
     ethr =  2.10E-03,  avg # of iterations =  1.0

     negative rho (up, down):  3.099E-03 0.000E+00

     add environment contribution to local potential
     polarization accuracy = 8.6E-12, # of iterations =  75

     total cpu time spent up to now is      104.6 secs

     total energy              =    -624.66137744 Ry
     Harris-Foulkes estimate   =    -620.99993505 Ry
     estimated scf accuracy    <       2.34329768 Ry
     electrostatic embedding   =       0.02580665 Ry
     correction to one-el term =      -3.75171779 Ry

     iteration # 10     ecut=    35.00 Ry     beta=0.70
     Davidson diagonalization with overlap
     ethr =  2.10E-03,  avg # of iterations =  1.0

     negative rho (up, down):  1.865E-03 0.000E+00

     add environment contribution to local potential
     polarization accuracy = 9.2E-12, # of iterations =  74

     total cpu time spent up to now is      116.2 secs

     total energy              =    -624.29399366 Ry
     Harris-Foulkes estimate   =    -619.93465888 Ry
     estimated scf accuracy    <       1.04554699 Ry
     electrostatic embedding   =       0.00495497 Ry
     correction to one-el term =      -4.41910132 Ry

     iteration # 11     ecut=    35.00 Ry     beta=0.70
     Davidson diagonalization with overlap
     ethr =  1.17E-03,  avg # of iterations =  6.0

     negative rho (up, down):  3.343E-03 0.000E+00

     add environment contribution to local potential
     polarization accuracy = 9.7E-12, # of iterations =  77

     total cpu time spent up to now is      128.4 secs

     total energy              =    -623.77168432 Ry
     Harris-Foulkes estimate   =    -618.92090079 Ry
     estimated scf accuracy    <       0.11921147 Ry
     electrostatic embedding   =       0.08392438 Ry
     correction to one-el term =      -5.00872354 Ry

     iteration # 12     ecut=    35.00 Ry     beta=0.70
     Davidson diagonalization with overlap
     ethr =  1.34E-04,  avg # of iterations = 10.0

     negative rho (up, down):  3.054E-03 0.000E+00

     add environment contribution to local potential
     polarization accuracy = 9.7E-12, # of iterations =  79

     total cpu time spent up to now is      141.6 secs

     total energy              =    -623.65411374 Ry
     Harris-Foulkes estimate   =    -627.62008315 Ry
     estimated scf accuracy    <       1.60779724 Ry
     electrostatic embedding   =       0.16748928 Ry
     correction to one-el term =       3.67611809 Ry

     iteration # 13     ecut=    35.00 Ry     beta=0.70
     Davidson diagonalization with overlap
     ethr =  1.34E-04,  avg # of iterations =  7.0

     negative rho (up, down):  2.569E-03 0.000E+00

     add environment contribution to local potential
     polarization accuracy = 8.7E-12, # of iterations =  72

     total cpu time spent up to now is      153.5 secs

     total energy              =    -623.65899453 Ry
     Harris-Foulkes estimate   =    -630.11068511 Ry
     estimated scf accuracy    <       0.27152944 Ry
     electrostatic embedding   =       0.18434777 Ry
     correction to one-el term =       6.19725280 Ry

     iteration # 14     ecut=    35.00 Ry     beta=0.70
     Davidson diagonalization with overlap
     ethr =  1.34E-04,  avg # of iterations =  7.0

     negative rho (up, down):  1.972E-03 0.000E+00

     add environment contribution to local potential
     polarization accuracy = 8.6E-12, # of iterations =  64

     total cpu time spent up to now is      164.2 secs

     total energy              =    -623.69607115 Ry
     Harris-Foulkes estimate   =    -630.09096343 Ry
     estimated scf accuracy    <       0.06683379 Ry
     electrostatic embedding   =       0.18951031 Ry
     correction to one-el term =       6.19183623 Ry

     iteration # 15     ecut=    35.00 Ry     beta=0.70
     Davidson diagonalization with overlap
     ethr =  7.51E-05,  avg # of iterations =  5.0

     negative rho (up, down):  2.093E-03 0.000E+00

     total cpu time spent up to now is      166.9 secs

     End of self-consistent calculation

          k = 0.0000 0.0000 0.0000 (  7286 PWs)   bands (ev):

   -29.4627 -16.0885 -14.4916 -13.1524 -12.9995 -12.3919 -12.3516 -12.3134
   -12.1071 -11.3041 -11.1930 -11.0617 -10.8688 -10.8223 -10.7150 -10.5903
    -9.9110  -9.8658  -9.8115  -9.6093  -9.5654  -9.5134  -9.4609  -9.4440
    -9.4129  -9.2602  -9.2174  -9.1431  -9.0176  -8.7907  -8.6856  -7.9343
    -7.8044  -7.5302  -7.3085  -7.2438  -7.1754  -7.0350  -6.8786  -6.7428
    -6.5635  -6.5606  -6.3612  -6.3154  -6.2713  -6.0916  -5.9516  -4.8670
    -4.5413  -4.4809  -3.8804  -3.1887  -3.0212  -2.0329  -1.7336  -1.6952
    -0.3629  -0.3329  -0.0428   0.2834   0.7133   1.0814   1.2983   1.3204
     2.1950   2.4003   2.5968   2.7392   2.8949   3.1986   4.0205   4.3466
     4.4992   4.6534   4.8495   5.2064   5.2646   5.3603   5.4957   5.6604

     the Fermi energy is    -6.1841 ev

!    total energy              =    -623.67991191 Ry
     Harris-Foulkes estimate   =    -631.30042538 Ry
     estimated scf accuracy    <       0.02086970 Ry

     The total energy is the sum of the following terms:

     one-electron contribution =   -3948.97968061 Ry
     hartree contribution      =    2007.31448467 Ry
     xc contribution           =    -262.82123209 Ry
     ewald contribution        =    1573.20467954 Ry
     smearing contrib. (-TS)   =      -0.00038968 Ry
     electrostatic embedding   =       0.19691989 Ry
     correction to one-el term =       7.40530638 Ry

     convergence has been achieved in  15 iterations

     negative rho (up, down):  2.093E-03 0.000E+00

     Forces acting on atoms (cartesian axes, Ry/au):

     atom    1 type  1   force =     0.00082636   -0.00430103    0.08273825
     atom    2 type  2   force =    -0.00088673    0.00161712   -0.03509324
     atom    3 type  3   force =     0.00354407    0.00961334    0.05913945
     atom    4 type  3   force =    -0.00149908    0.01423301    0.04260800
     atom    5 type  3   force =     0.01149569    0.00926447    0.01920315
     atom    6 type  3   force =    -0.01214967    0.01161680    0.03720285
     atom    7 type  3   force =     0.01345565   -0.00934612   -0.05960934
     atom    8 type  3   force =    -0.01494104   -0.01954966   -0.04000199
     atom    9 type  3   force =     0.02327813   -0.00852757   -0.04988792
     atom   10 type  3   force =    -0.02312338   -0.00462036   -0.05629921

     Total force =     0.169800     Total SCF correction =     0.449960
     SCF correction compared to forces is large: reduce conv_thr to get better values

     Writing output data file pwscf.save
 
     init_run     :      5.14s CPU      5.25s WALL (       1 calls)
     electrons    :    160.13s CPU    162.07s WALL (       1 calls)
     forces       :      3.40s CPU      3.45s WALL (       1 calls)

     Called by init_run:
     wfcinit      :      0.40s CPU      0.40s WALL (       1 calls)
     potinit      :      1.82s CPU      1.84s WALL (       1 calls)

     Called by electrons:
     c_bands      :     20.82s CPU     20.94s WALL (      15 calls)
     sum_band     :     11.25s CPU     11.82s WALL (      15 calls)
     v_of_rho     :      4.56s CPU      4.63s WALL (      16 calls)
     newd         :      6.27s CPU      6.78s WALL (      16 calls)
     mix_rho      :      0.61s CPU      0.62s WALL (      15 calls)

     Called by c_bands:
     init_us_2    :      0.14s CPU      0.14s WALL (      31 calls)
     regterg      :     19.76s CPU     19.86s WALL (      15 calls)

     Called by sum_band:
     sum_band:bec :      0.00s CPU      0.00s WALL (      15 calls)
     addusdens    :      7.70s CPU      8.25s WALL (      15 calls)

     Called by *egterg:
     h_psi        :     14.93s CPU     14.92s WALL (      99 calls)
     s_psi        :      0.79s CPU      0.79s WALL (      99 calls)
     g_psi        :      0.16s CPU      0.15s WALL (      83 calls)
     rdiaghg      :      0.87s CPU      0.84s WALL (      98 calls)

     Called by h_psi:
     h_psi:pot    :     14.86s CPU     14.84s WALL (      99 calls)
     h_psi:calbec :      0.79s CPU      0.82s WALL (      99 calls)
     vloc_psi     :     13.26s CPU     13.23s WALL (      99 calls)
     add_vuspsi   :      0.80s CPU      0.79s WALL (      99 calls)

     General routines
     calbec       :      1.12s CPU      1.17s WALL (     118 calls)
     fft          :     48.32s CPU     48.43s WALL (    4196 calls)
     ffts         :      0.13s CPU      0.13s WALL (      31 calls)
     fftw         :     13.65s CPU     13.40s WALL (    4154 calls)
     interpolate  :      0.57s CPU      0.60s WALL (      31 calls)
     davcio       :      0.00s CPU      0.00s WALL (       1 calls)
 
     Parallel routines
     fft_scatter  :     10.74s CPU     10.75s WALL (    8381 calls)
 
     Environ routines
     calc_eelect  :      0.02s CPU      0.02s WALL (      30 calls)
     calc_velect  :    112.62s CPU    112.64s WALL (      26 calls)
     dielectric   :      0.44s CPU      0.44s WALL (      16 calls)
     calc_felect  :      0.09s CPU      0.09s WALL (       1 calls)
 
     PWSCF        :  2m49.08s CPU     2m53.42s WALL

 
   This run was terminated on:  16:32: 3  19Oct2017            

=------------------------------------------------------------------------------=
   JOB DONE.
=------------------------------------------------------------------------------=

%%%% IONS %%%%%%%%%%%%%%%%%%%%%%%%%%%%%%%%%%%%%%%%%%%%%%%%%%%%%%%%%%%%%%%%%%%%%%
 number of ions             =         10
 ionic center of charge     =      0.3882415     0.3750182     0.7201831
 total ionic charge         =    -90.0000000
 ionic dipole               =      0.0000000     0.0000000     0.0000000
 ionic quadrupole (pc)      =   -730.5101255  -614.6110457  -876.7220256
 ionic quadrupole (gauss)   =   -741.7601255  -625.8610457  -887.9720256
 ion   1 type =  1 coordinates =      5.3350841     4.6467234    12.9010299
 ion   2 type =  2 coordinates =      5.3350096     4.6196233    15.0798543
 ion   3 type =  3 coordinates =      8.0613271     0.0980580     8.9921429
 ion   4 type =  3 coordinates =      2.6089894     0.0980583     8.9921406
 ion   5 type =  3 coordinates =      0.0000366     4.7208463     8.9687569
 ion   6 type =  3 coordinates =      5.3351596     4.7216127     9.3801964
 ion   7 type =  3 coordinates =      0.0000411     7.8029520     4.6046265
 ion   8 type =  3 coordinates =      5.3351612     7.6977491     4.7534894
 ion   9 type =  3 coordinates =      2.6978606     3.1521739     4.6884123
 ion  10 type =  3 coordinates =      7.9724637     3.1521745     4.6884152

%%%% SYSTEM %%%%%%%%%%%%%%%%%%%%%%%%%%%%%%%%%%%%%%%%%%%%%%%%%%%%%%%%%%%%%%%%%%%%
 system is built from all present ionic types
 system defined dimension   =  0 
 system defined axis        =  3 
 system center              =      0.3882415     0.3750182     0.7201831 
 system width               =      1.5145225 

%%%% ELECTRONS %%%%%%%%%%%%%%%%%%%%%%%%%%%%%%%%%%%%%%%%%%%%%%%%%%%%%%%%%%%%%%%%%
 number of electrons        =         89
 total electronic charge    =     89.0000000
 number of spin components  =  1

%%%% BOUNDARY %%%%%%%%%%%%%%%%%%%%%%%%%%%%%%%%%%%%%%%%%%%%%%%%%%%%%%%%%%%%%%%%%%
 boundary mode              = electronic           
 boundary is built as a function of a smooth density
 function type              =  1 
 using the optimal SCCS function with parameters 
 rhomax                     =      0.0050000 
 rhomin                     =      0.0001000 

%%%% DIELECTRIC %%%%%%%%%%%%%%%%%%%%%%%%%%%%%%%%%%%%%%%%%%%%%%%%%%%%%%%%%%%%%%%%%
 dielectric build on homogeneous background
 environment bulk permitt.  =    100.0000000 
 dielectric flags
 need gradient              =  F 
 need factor depend. sqrt   =  F 
 need gradient of logarithm =  T 

%%%% COMPUTE ELECTROSTATIC POTENTIAL %%%%%%%%%%%%%%%%%%%%%%%%%%%%%%%%%%%%%%%%%%%
 Starting from polarization: rhoiter =      0.000000 jellium =      0.000000
 Iteration #          1
 delta_qm =   0.486868E-02 delta_en =   0.592597E-05 tol =   0.100000E-10
 Iteration #          2
 delta_qm =   0.212441E-02 delta_en =   0.258575E-05 tol =   0.100000E-10
 Iteration #          3
 delta_qm =   0.180212E-02 delta_en =   0.219347E-05 tol =   0.100000E-10
 Iteration #          4
 delta_qm =   0.105425E-02 delta_en =   0.128319E-05 tol =   0.100000E-10
 Iteration #          5
 delta_qm =   0.689143E-03 delta_en =   0.838798E-06 tol =   0.100000E-10
 Iteration #          6
 delta_qm =   0.571242E-03 delta_en =   0.695294E-06 tol =   0.100000E-10
 Iteration #          7
 delta_qm =   0.447808E-03 delta_en =   0.545055E-06 tol =   0.100000E-10
 Iteration #          8
 delta_qm =   0.311664E-03 delta_en =   0.379345E-06 tol =   0.100000E-10
 Iteration #          9
 delta_qm =   0.209240E-03 delta_en =   0.254679E-06 tol =   0.100000E-10
 Iteration #         10
 delta_qm =   0.156506E-03 delta_en =   0.190494E-06 tol =   0.100000E-10
 Iteration #         11
 delta_qm =   0.130731E-03 delta_en =   0.159120E-06 tol =   0.100000E-10
 Iteration #         12
 delta_qm =   0.107568E-03 delta_en =   0.130928E-06 tol =   0.100000E-10
 Iteration #         13
 delta_qm =   0.819941E-04 delta_en =   0.998001E-07 tol =   0.100000E-10
 Iteration #         14
 delta_qm =   0.582793E-04 delta_en =   0.709353E-07 tol =   0.100000E-10
 Iteration #         15
 delta_qm =   0.408984E-04 delta_en =   0.497799E-07 tol =   0.100000E-10
 Iteration #         16
 delta_qm =   0.308048E-04 delta_en =   0.374944E-07 tol =   0.100000E-10
 Iteration #         17
 delta_qm =   0.251139E-04 delta_en =   0.305677E-07 tol =   0.100000E-10
 Iteration #         18
 delta_qm =   0.205666E-04 delta_en =   0.250329E-07 tol =   0.100000E-10
 Iteration #         19
 delta_qm =   0.160350E-04 delta_en =   0.195172E-07 tol =   0.100000E-10
 Iteration #         20
 delta_qm =   0.118238E-04 delta_en =   0.143915E-07 tol =   0.100000E-10
 Iteration #         21
 delta_qm =   0.849961E-05 delta_en =   0.103454E-07 tol =   0.100000E-10
 Iteration #         22
 delta_qm =   0.628897E-05 delta_en =   0.765469E-08 tol =   0.100000E-10
 Iteration #         23
 delta_qm =   0.493485E-05 delta_en =   0.600651E-08 tol =   0.100000E-10
 Iteration #         24
 delta_qm =   0.398556E-05 delta_en =   0.485107E-08 tol =   0.100000E-10
 Iteration #         25
 delta_qm =   0.317194E-05 delta_en =   0.386077E-08 tol =   0.100000E-10
 Iteration #         26
 delta_qm =   0.245133E-05 delta_en =   0.298366E-08 tol =   0.100000E-10
 Iteration #         27
 delta_qm =   0.186671E-05 delta_en =   0.227209E-08 tol =   0.100000E-10
 Iteration #         28
 delta_qm =   0.143904E-05 delta_en =   0.175154E-08 tol =   0.100000E-10
 Iteration #         29
 delta_qm =   0.113701E-05 delta_en =   0.138392E-08 tol =   0.100000E-10
 Iteration #         30
 delta_qm =   0.907749E-06 delta_en =   0.110488E-08 tol =   0.100000E-10
 Iteration #         31
 delta_qm =   0.717081E-06 delta_en =   0.872803E-09 tol =   0.100000E-10
 Iteration #         32
 delta_qm =   0.557727E-06 delta_en =   0.678844E-09 tol =   0.100000E-10
 Iteration #         33
 delta_qm =   0.434507E-06 delta_en =   0.528865E-09 tol =   0.100000E-10
 Iteration #         34
 delta_qm =   0.348479E-06 delta_en =   0.424156E-09 tol =   0.100000E-10
 Iteration #         35
 delta_qm =   0.290682E-06 delta_en =   0.353807E-09 tol =   0.100000E-10
 Iteration #         36
 delta_qm =   0.247663E-06 delta_en =   0.301446E-09 tol =   0.100000E-10
 Iteration #         37
 delta_qm =   0.210114E-06 delta_en =   0.255742E-09 tol =   0.100000E-10
 Iteration #         38
 delta_qm =   0.175107E-06 delta_en =   0.213133E-09 tol =   0.100000E-10
 Iteration #         39
 delta_qm =   0.143415E-06 delta_en =   0.174560E-09 tol =   0.100000E-10
 Iteration #         40
 delta_qm =   0.116520E-06 delta_en =   0.141824E-09 tol =   0.100000E-10
 Iteration #         41
 delta_qm =   0.950239E-07 delta_en =   0.115659E-09 tol =   0.100000E-10
 Iteration #         42
 delta_qm =   0.783759E-07 delta_en =   0.953961E-10 tol =   0.100000E-10
 Iteration #         43
 delta_qm =   0.653809E-07 delta_en =   0.795792E-10 tol =   0.100000E-10
 Iteration #         44
 delta_qm =   0.548537E-07 delta_en =   0.667658E-10 tol =   0.100000E-10
 Iteration #         45
 delta_qm =   0.459782E-07 delta_en =   0.559629E-10 tol =   0.100000E-10
 Iteration #         46
 delta_qm =   0.383250E-07 delta_en =   0.466477E-10 tol =   0.100000E-10
 Iteration #         47
 delta_qm =   0.317163E-07 delta_en =   0.386038E-10 tol =   0.100000E-10
 Iteration #         48
 delta_qm =   0.260892E-07 delta_en =   0.317548E-10 tol =   0.100000E-10
 Iteration #         49
 delta_qm =   0.214039E-07 delta_en =   0.260520E-10 tol =   0.100000E-10
 Iteration #         50
 delta_qm =   0.175922E-07 delta_en =   0.214126E-10 tol =   0.100000E-10
 Iteration #         51
 delta_qm =   0.145392E-07 delta_en =   0.176966E-10 tol =   0.100000E-10
 Iteration #         52
 delta_qm =   0.120936E-07 delta_en =   0.147199E-10 tol =   0.100000E-10
 Iteration #         53
 delta_qm =   0.100996E-07 delta_en =   0.122928E-10 tol =   0.100000E-10
 Iteration #         54
 delta_qm =   0.843031E-08 delta_en =   0.102610E-10 tol =   0.100000E-10
 Iteration #         55
 delta_qm =   0.700442E-08 delta_en =   0.852550E-11 tol =   0.100000E-10
 Charges are converged, EXIT

%%%% ELECTRONS %%%%%%%%%%%%%%%%%%%%%%%%%%%%%%%%%%%%%%%%%%%%%%%%%%%%%%%%%%%%%%%%%
 number of electrons        =         89
 total electronic charge    =     89.0000000
 number of spin components  =  1

%%%% BOUNDARY %%%%%%%%%%%%%%%%%%%%%%%%%%%%%%%%%%%%%%%%%%%%%%%%%%%%%%%%%%%%%%%%%%
 boundary mode              = electronic           
 boundary is built as a function of a smooth density
 function type              =  1 
 using the optimal SCCS function with parameters 
 rhomax                     =      0.0050000 
 rhomin                     =      0.0001000 

%%%% DIELECTRIC %%%%%%%%%%%%%%%%%%%%%%%%%%%%%%%%%%%%%%%%%%%%%%%%%%%%%%%%%%%%%%%%%
 dielectric build on homogeneous background
 environment bulk permitt.  =    100.0000000 
 dielectric flags
 need gradient              =  F 
 need factor depend. sqrt   =  F 
 need gradient of logarithm =  T 

%%%% ELECTRONS %%%%%%%%%%%%%%%%%%%%%%%%%%%%%%%%%%%%%%%%%%%%%%%%%%%%%%%%%%%%%%%%%
 number of electrons        =         89
 total electronic charge    =     89.0000000
 number of spin components  =  1

%%%% BOUNDARY %%%%%%%%%%%%%%%%%%%%%%%%%%%%%%%%%%%%%%%%%%%%%%%%%%%%%%%%%%%%%%%%%%
 boundary mode              = electronic           
 boundary is built as a function of a smooth density
 function type              =  1 
 using the optimal SCCS function with parameters 
 rhomax                     =      0.0050000 
 rhomin                     =      0.0001000 

%%%% DIELECTRIC %%%%%%%%%%%%%%%%%%%%%%%%%%%%%%%%%%%%%%%%%%%%%%%%%%%%%%%%%%%%%%%%%
 dielectric build on homogeneous background
 environment bulk permitt.  =    100.0000000 
 dielectric flags
 need gradient              =  F 
 need factor depend. sqrt   =  F 
 need gradient of logarithm =  T 

%%%% COMPUTE ELECTROSTATIC POTENTIAL %%%%%%%%%%%%%%%%%%%%%%%%%%%%%%%%%%%%%%%%%%%
 Starting from polarization: rhoiter =      1.230132 jellium =      0.000000
 Iteration #          1
 delta_qm =   0.635896E-03 delta_en =   0.773988E-06 tol =   0.100000E-10
 Iteration #          2
 delta_qm =   0.347084E-03 delta_en =   0.422457E-06 tol =   0.100000E-10
 Iteration #          3
 delta_qm =   0.259162E-03 delta_en =   0.315442E-06 tol =   0.100000E-10
 Iteration #          4
 delta_qm =   0.159354E-03 delta_en =   0.193959E-06 tol =   0.100000E-10
 Iteration #          5
 delta_qm =   0.111224E-03 delta_en =   0.135377E-06 tol =   0.100000E-10
 Iteration #          6
 delta_qm =   0.870845E-04 delta_en =   0.105996E-06 tol =   0.100000E-10
 Iteration #          7
 delta_qm =   0.671133E-04 delta_en =   0.816877E-07 tol =   0.100000E-10
 Iteration #          8
 delta_qm =   0.517218E-04 delta_en =   0.629538E-07 tol =   0.100000E-10
 Iteration #          9
 delta_qm =   0.426418E-04 delta_en =   0.519020E-07 tol =   0.100000E-10
 Iteration #         10
 delta_qm =   0.381819E-04 delta_en =   0.464735E-07 tol =   0.100000E-10
 Iteration #         11
 delta_qm =   0.359107E-04 delta_en =   0.437091E-07 tol =   0.100000E-10
 Iteration #         12
 delta_qm =   0.345325E-04 delta_en =   0.420316E-07 tol =   0.100000E-10
 Iteration #         13
 delta_qm =   0.335005E-04 delta_en =   0.407755E-07 tol =   0.100000E-10
 Iteration #         14
 delta_qm =   0.324816E-04 delta_en =   0.395353E-07 tol =   0.100000E-10
 Iteration #         15
 delta_qm =   0.312633E-04 delta_en =   0.380525E-07 tol =   0.100000E-10
 Iteration #         16
 delta_qm =   0.297778E-04 delta_en =   0.362443E-07 tol =   0.100000E-10
 Iteration #         17
 delta_qm =   0.280685E-04 delta_en =   0.341639E-07 tol =   0.100000E-10
 Iteration #         18
 delta_qm =   0.262242E-04 delta_en =   0.319191E-07 tol =   0.100000E-10
 Iteration #         19
 delta_qm =   0.243290E-04 delta_en =   0.296123E-07 tol =   0.100000E-10
 Iteration #         20
 delta_qm =   0.224431E-04 delta_en =   0.273169E-07 tol =   0.100000E-10
 Iteration #         21
 delta_qm =   0.206038E-04 delta_en =   0.250781E-07 tol =   0.100000E-10
 Iteration #         22
 delta_qm =   0.188330E-04 delta_en =   0.229228E-07 tol =   0.100000E-10
 Iteration #         23
 delta_qm =   0.171444E-04 delta_en =   0.208675E-07 tol =   0.100000E-10
 Iteration #         24
 delta_qm =   0.155464E-04 delta_en =   0.189225E-07 tol =   0.100000E-10
 Iteration #         25
 delta_qm =   0.140442E-04 delta_en =   0.170940E-07 tol =   0.100000E-10
 Iteration #         26
 delta_qm =   0.126406E-04 delta_en =   0.153856E-07 tol =   0.100000E-10
 Iteration #         27
 delta_qm =   0.113366E-04 delta_en =   0.137985E-07 tol =   0.100000E-10
 Iteration #         28
 delta_qm =   0.101323E-04 delta_en =   0.123327E-07 tol =   0.100000E-10
 Iteration #         29
 delta_qm =   0.902633E-05 delta_en =   0.109865E-07 tol =   0.100000E-10
 Iteration #         30
 delta_qm =   0.801642E-05 delta_en =   0.975727E-08 tol =   0.100000E-10
 Iteration #         31
 delta_qm =   0.709926E-05 delta_en =   0.864095E-08 tol =   0.100000E-10
 Iteration #         32
 delta_qm =   0.627063E-05 delta_en =   0.763237E-08 tol =   0.100000E-10
 Iteration #         33
 delta_qm =   0.552551E-05 delta_en =   0.672543E-08 tol =   0.100000E-10
 Iteration #         34
 delta_qm =   0.485832E-05 delta_en =   0.591336E-08 tol =   0.100000E-10
 Iteration #         35
 delta_qm =   0.426320E-05 delta_en =   0.518900E-08 tol =   0.100000E-10
 Iteration #         36
 delta_qm =   0.373415E-05 delta_en =   0.454507E-08 tol =   0.100000E-10
 Iteration #         37
 delta_qm =   0.326526E-05 delta_en =   0.397435E-08 tol =   0.100000E-10
 Iteration #         38
 delta_qm =   0.285083E-05 delta_en =   0.346992E-08 tol =   0.100000E-10
 Iteration #         39
 delta_qm =   0.248544E-05 delta_en =   0.302518E-08 tol =   0.100000E-10
 Iteration #         40
 delta_qm =   0.216404E-05 delta_en =   0.263398E-08 tol =   0.100000E-10
 Iteration #         41
 delta_qm =   0.188195E-05 delta_en =   0.229063E-08 tol =   0.100000E-10
 Iteration #         42
 delta_qm =   0.163487E-05 delta_en =   0.198990E-08 tol =   0.100000E-10
 Iteration #         43
 delta_qm =   0.141888E-05 delta_en =   0.172700E-08 tol =   0.100000E-10
 Iteration #         44
 delta_qm =   0.123040E-05 delta_en =   0.149760E-08 tol =   0.100000E-10
 Iteration #         45
 delta_qm =   0.106621E-05 delta_en =   0.129775E-08 tol =   0.100000E-10
 Iteration #         46
 delta_qm =   0.923390E-06 delta_en =   0.112391E-08 tol =   0.100000E-10
 Iteration #         47
 delta_qm =   0.799326E-06 delta_en =   0.972909E-09 tol =   0.100000E-10
 Iteration #         48
 delta_qm =   0.691685E-06 delta_en =   0.841892E-09 tol =   0.100000E-10
 Iteration #         49
 delta_qm =   0.598389E-06 delta_en =   0.728335E-09 tol =   0.100000E-10
 Iteration #         50
 delta_qm =   0.517597E-06 delta_en =   0.629998E-09 tol =   0.100000E-10
 Iteration #         51
 delta_qm =   0.447684E-06 delta_en =   0.544904E-09 tol =   0.100000E-10
 Iteration #         52
 delta_qm =   0.387223E-06 delta_en =   0.471313E-09 tol =   0.100000E-10
 Iteration #         53
 delta_qm =   0.334958E-06 delta_en =   0.407698E-09 tol =   0.100000E-10
 Iteration #         54
 delta_qm =   0.289794E-06 delta_en =   0.352726E-09 tol =   0.100000E-10
 Iteration #         55
 delta_qm =   0.250773E-06 delta_en =   0.305231E-09 tol =   0.100000E-10
 Iteration #         56
 delta_qm =   0.217063E-06 delta_en =   0.264201E-09 tol =   0.100000E-10
 Iteration #         57
 delta_qm =   0.187942E-06 delta_en =   0.228755E-09 tol =   0.100000E-10
 Iteration #         58
 delta_qm =   0.162780E-06 delta_en =   0.198130E-09 tol =   0.100000E-10
 Iteration #         59
 delta_qm =   0.141037E-06 delta_en =   0.171665E-09 tol =   0.100000E-10
 Iteration #         60
 delta_qm =   0.122243E-06 delta_en =   0.148789E-09 tol =   0.100000E-10
 Iteration #         61
 delta_qm =   0.105992E-06 delta_en =   0.129010E-09 tol =   0.100000E-10
 Iteration #         62
 delta_qm =   0.919357E-07 delta_en =   0.111901E-09 tol =   0.100000E-10
 Iteration #         63
 delta_qm =   0.797722E-07 delta_en =   0.970956E-10 tol =   0.100000E-10
 Iteration #         64
 delta_qm =   0.692422E-07 delta_en =   0.842789E-10 tol =   0.100000E-10
 Iteration #         65
 delta_qm =   0.601222E-07 delta_en =   0.731784E-10 tol =   0.100000E-10
 Iteration #         66
 delta_qm =   0.522198E-07 delta_en =   0.635599E-10 tol =   0.100000E-10
 Iteration #         67
 delta_qm =   0.453692E-07 delta_en =   0.552217E-10 tol =   0.100000E-10
 Iteration #         68
 delta_qm =   0.394278E-07 delta_en =   0.479900E-10 tol =   0.100000E-10
 Iteration #         69
 delta_qm =   0.342726E-07 delta_en =   0.417153E-10 tol =   0.100000E-10
 Iteration #         70
 delta_qm =   0.297976E-07 delta_en =   0.362685E-10 tol =   0.100000E-10
 Iteration #         71
 delta_qm =   0.259115E-07 delta_en =   0.315384E-10 tol =   0.100000E-10
 Iteration #         72
 delta_qm =   0.225355E-07 delta_en =   0.274293E-10 tol =   0.100000E-10
 Iteration #         73
 delta_qm =   0.196016E-07 delta_en =   0.238583E-10 tol =   0.100000E-10
 Iteration #         74
 delta_qm =   0.170511E-07 delta_en =   0.207540E-10 tol =   0.100000E-10
 Iteration #         75
 delta_qm =   0.148334E-07 delta_en =   0.180546E-10 tol =   0.100000E-10
 Iteration #         76
 delta_qm =   0.129045E-07 delta_en =   0.157068E-10 tol =   0.100000E-10
 Iteration #         77
 delta_qm =   0.112264E-07 delta_en =   0.136644E-10 tol =   0.100000E-10
 Iteration #         78
 delta_qm =   0.976640E-08 delta_en =   0.118873E-10 tol =   0.100000E-10
 Iteration #         79
 delta_qm =   0.849594E-08 delta_en =   0.103409E-10 tol =   0.100000E-10
 Iteration #         80
 delta_qm =   0.739034E-08 delta_en =   0.899524E-11 tol =   0.100000E-10
 Charges are converged, EXIT

%%%% ELECTRONS %%%%%%%%%%%%%%%%%%%%%%%%%%%%%%%%%%%%%%%%%%%%%%%%%%%%%%%%%%%%%%%%%
 number of electrons        =         89
 total electronic charge    =     89.0000000
 number of spin components  =  1

%%%% BOUNDARY %%%%%%%%%%%%%%%%%%%%%%%%%%%%%%%%%%%%%%%%%%%%%%%%%%%%%%%%%%%%%%%%%%
 boundary mode              = electronic           
 boundary is built as a function of a smooth density
 function type              =  1 
 using the optimal SCCS function with parameters 
 rhomax                     =      0.0050000 
 rhomin                     =      0.0001000 

%%%% DIELECTRIC %%%%%%%%%%%%%%%%%%%%%%%%%%%%%%%%%%%%%%%%%%%%%%%%%%%%%%%%%%%%%%%%%
 dielectric build on homogeneous background
 environment bulk permitt.  =    100.0000000 
 dielectric flags
 need gradient              =  F 
 need factor depend. sqrt   =  F 
 need gradient of logarithm =  T 

%%%% COMPUTE ELECTROSTATIC POTENTIAL %%%%%%%%%%%%%%%%%%%%%%%%%%%%%%%%%%%%%%%%%%%
 Starting from polarization: rhoiter =      1.304860 jellium =      0.000000
 Iteration #          1
 delta_qm =   0.665426E-03 delta_en =   0.809930E-06 tol =   0.100000E-10
 Iteration #          2
 delta_qm =   0.403719E-03 delta_en =   0.491392E-06 tol =   0.100000E-10
 Iteration #          3
 delta_qm =   0.273000E-03 delta_en =   0.332285E-06 tol =   0.100000E-10
 Iteration #          4
 delta_qm =   0.205368E-03 delta_en =   0.249965E-06 tol =   0.100000E-10
 Iteration #          5
 delta_qm =   0.168189E-03 delta_en =   0.204713E-06 tol =   0.100000E-10
 Iteration #          6
 delta_qm =   0.131694E-03 delta_en =   0.160292E-06 tol =   0.100000E-10
 Iteration #          7
 delta_qm =   0.961596E-04 delta_en =   0.117042E-06 tol =   0.100000E-10
 Iteration #          8
 delta_qm =   0.689165E-04 delta_en =   0.838825E-07 tol =   0.100000E-10
 Iteration #          9
 delta_qm =   0.519069E-04 delta_en =   0.631790E-07 tol =   0.100000E-10
 Iteration #         10
 delta_qm =   0.411694E-04 delta_en =   0.501098E-07 tol =   0.100000E-10
 Iteration #         11
 delta_qm =   0.324247E-04 delta_en =   0.394661E-07 tol =   0.100000E-10
 Iteration #         12
 delta_qm =   0.243205E-04 delta_en =   0.296020E-07 tol =   0.100000E-10
 Iteration #         13
 delta_qm =   0.173537E-04 delta_en =   0.211223E-07 tol =   0.100000E-10
 Iteration #         14
 delta_qm =   0.122316E-04 delta_en =   0.148878E-07 tol =   0.100000E-10
 Iteration #         15
 delta_qm =   0.902235E-05 delta_en =   0.109817E-07 tol =   0.100000E-10
 Iteration #         16
 delta_qm =   0.707499E-05 delta_en =   0.861141E-08 tol =   0.100000E-10
 Iteration #         17
 delta_qm =   0.566187E-05 delta_en =   0.689141E-08 tol =   0.100000E-10
 Iteration #         18
 delta_qm =   0.451021E-05 delta_en =   0.548966E-08 tol =   0.100000E-10
 Iteration #         19
 delta_qm =   0.370088E-05 delta_en =   0.450456E-08 tol =   0.100000E-10
 Iteration #         20
 delta_qm =   0.332800E-05 delta_en =   0.405071E-08 tol =   0.100000E-10
 Iteration #         21
 delta_qm =   0.327745E-05 delta_en =   0.398919E-08 tol =   0.100000E-10
 Iteration #         22
 delta_qm =   0.333340E-05 delta_en =   0.405729E-08 tol =   0.100000E-10
 Iteration #         23
 delta_qm =   0.336303E-05 delta_en =   0.409335E-08 tol =   0.100000E-10
 Iteration #         24
 delta_qm =   0.333061E-05 delta_en =   0.405389E-08 tol =   0.100000E-10
 Iteration #         25
 delta_qm =   0.324429E-05 delta_en =   0.394883E-08 tol =   0.100000E-10
 Iteration #         26
 delta_qm =   0.312043E-05 delta_en =   0.379807E-08 tol =   0.100000E-10
 Iteration #         27
 delta_qm =   0.297138E-05 delta_en =   0.361665E-08 tol =   0.100000E-10
 Iteration #         28
 delta_qm =   0.280510E-05 delta_en =   0.341426E-08 tol =   0.100000E-10
 Iteration #         29
 delta_qm =   0.262743E-05 delta_en =   0.319801E-08 tol =   0.100000E-10
 Iteration #         30
 delta_qm =   0.244338E-05 delta_en =   0.297399E-08 tol =   0.100000E-10
 Iteration #         31
 delta_qm =   0.225725E-05 delta_en =   0.274744E-08 tol =   0.100000E-10
 Iteration #         32
 delta_qm =   0.207249E-05 delta_en =   0.252256E-08 tol =   0.100000E-10
 Iteration #         33
 delta_qm =   0.189174E-05 delta_en =   0.230255E-08 tol =   0.100000E-10
 Iteration #         34
 delta_qm =   0.171703E-05 delta_en =   0.208990E-08 tol =   0.100000E-10
 Iteration #         35
 delta_qm =   0.155002E-05 delta_en =   0.188662E-08 tol =   0.100000E-10
 Iteration #         36
 delta_qm =   0.139206E-05 delta_en =   0.169436E-08 tol =   0.100000E-10
 Iteration #         37
 delta_qm =   0.124418E-05 delta_en =   0.151437E-08 tol =   0.100000E-10
 Iteration #         38
 delta_qm =   0.110707E-05 delta_en =   0.134749E-08 tol =   0.100000E-10
 Iteration #         39
 delta_qm =   0.981046E-06 delta_en =   0.119409E-08 tol =   0.100000E-10
 Iteration #         40
 delta_qm =   0.866099E-06 delta_en =   0.105418E-08 tol =   0.100000E-10
 Iteration #         41
 delta_qm =   0.761966E-06 delta_en =   0.927436E-09 tol =   0.100000E-10
 Iteration #         42
 delta_qm =   0.668190E-06 delta_en =   0.813295E-09 tol =   0.100000E-10
 Iteration #         43
 delta_qm =   0.584184E-06 delta_en =   0.711046E-09 tol =   0.100000E-10
 Iteration #         44
 delta_qm =   0.509287E-06 delta_en =   0.619884E-09 tol =   0.100000E-10
 Iteration #         45
 delta_qm =   0.442801E-06 delta_en =   0.538960E-09 tol =   0.100000E-10
 Iteration #         46
 delta_qm =   0.384019E-06 delta_en =   0.467413E-09 tol =   0.100000E-10
 Iteration #         47
 delta_qm =   0.332246E-06 delta_en =   0.404397E-09 tol =   0.100000E-10
 Iteration #         48
 delta_qm =   0.286810E-06 delta_en =   0.349094E-09 tol =   0.100000E-10
 Iteration #         49
 delta_qm =   0.247070E-06 delta_en =   0.300724E-09 tol =   0.100000E-10
 Iteration #         50
 delta_qm =   0.212426E-06 delta_en =   0.258557E-09 tol =   0.100000E-10
 Iteration #         51
 delta_qm =   0.182315E-06 delta_en =   0.221907E-09 tol =   0.100000E-10
 Iteration #         52
 delta_qm =   0.156221E-06 delta_en =   0.190146E-09 tol =   0.100000E-10
 Iteration #         53
 delta_qm =   0.133666E-06 delta_en =   0.162693E-09 tol =   0.100000E-10
 Iteration #         54
 delta_qm =   0.114219E-06 delta_en =   0.139023E-09 tol =   0.100000E-10
 Iteration #         55
 delta_qm =   0.974892E-07 delta_en =   0.118660E-09 tol =   0.100000E-10
 Iteration #         56
 delta_qm =   0.831270E-07 delta_en =   0.101179E-09 tol =   0.100000E-10
 Iteration #         57
 delta_qm =   0.708199E-07 delta_en =   0.861992E-10 tol =   0.100000E-10
 Iteration #         58
 delta_qm =   0.602914E-07 delta_en =   0.733843E-10 tol =   0.100000E-10
 Iteration #         59
 delta_qm =   0.512978E-07 delta_en =   0.624377E-10 tol =   0.100000E-10
 Iteration #         60
 delta_qm =   0.436255E-07 delta_en =   0.530992E-10 tol =   0.100000E-10
 Iteration #         61
 delta_qm =   0.370879E-07 delta_en =   0.451420E-10 tol =   0.100000E-10
 Iteration #         62
 delta_qm =   0.315229E-07 delta_en =   0.383685E-10 tol =   0.100000E-10
 Iteration #         63
 delta_qm =   0.267900E-07 delta_en =   0.326077E-10 tol =   0.100000E-10
 Iteration #         64
 delta_qm =   0.227677E-07 delta_en =   0.277119E-10 tol =   0.100000E-10
 Iteration #         65
 delta_qm =   0.193513E-07 delta_en =   0.235536E-10 tol =   0.100000E-10
 Iteration #         66
 delta_qm =   0.164509E-07 delta_en =   0.200234E-10 tol =   0.100000E-10
 Iteration #         67
 delta_qm =   0.139894E-07 delta_en =   0.170273E-10 tol =   0.100000E-10
 Iteration #         68
 delta_qm =   0.119007E-07 delta_en =   0.144850E-10 tol =   0.100000E-10
 Iteration #         69
 delta_qm =   0.101284E-07 delta_en =   0.123279E-10 tol =   0.100000E-10
 Iteration #         70
 delta_qm =   0.862459E-08 delta_en =   0.104975E-10 tol =   0.100000E-10
 Iteration #         71
 delta_qm =   0.734824E-08 delta_en =   0.894399E-11 tol =   0.100000E-10
 Charges are converged, EXIT

%%%% ELECTRONS %%%%%%%%%%%%%%%%%%%%%%%%%%%%%%%%%%%%%%%%%%%%%%%%%%%%%%%%%%%%%%%%%
 number of electrons        =         89
 total electronic charge    =     89.0000000
 number of spin components  =  1

%%%% BOUNDARY %%%%%%%%%%%%%%%%%%%%%%%%%%%%%%%%%%%%%%%%%%%%%%%%%%%%%%%%%%%%%%%%%%
 boundary mode              = electronic           
 boundary is built as a function of a smooth density
 function type              =  1 
 using the optimal SCCS function with parameters 
 rhomax                     =      0.0050000 
 rhomin                     =      0.0001000 

%%%% DIELECTRIC %%%%%%%%%%%%%%%%%%%%%%%%%%%%%%%%%%%%%%%%%%%%%%%%%%%%%%%%%%%%%%%%%
 dielectric build on homogeneous background
 environment bulk permitt.  =    100.0000000 
 dielectric flags
 need gradient              =  F 
 need factor depend. sqrt   =  F 
 need gradient of logarithm =  T 

%%%% COMPUTE ELECTROSTATIC POTENTIAL %%%%%%%%%%%%%%%%%%%%%%%%%%%%%%%%%%%%%%%%%%%
 Starting from polarization: rhoiter =      1.356161 jellium =      0.000000
 Iteration #          1
 delta_qm =   0.453999E-03 delta_en =   0.552590E-06 tol =   0.100000E-10
 Iteration #          2
 delta_qm =   0.343470E-03 delta_en =   0.418059E-06 tol =   0.100000E-10
 Iteration #          3
 delta_qm =   0.249584E-03 delta_en =   0.303784E-06 tol =   0.100000E-10
 Iteration #          4
 delta_qm =   0.177831E-03 delta_en =   0.216449E-06 tol =   0.100000E-10
 Iteration #          5
 delta_qm =   0.147020E-03 delta_en =   0.178948E-06 tol =   0.100000E-10
 Iteration #          6
 delta_qm =   0.119590E-03 delta_en =   0.145561E-06 tol =   0.100000E-10
 Iteration #          7
 delta_qm =   0.908431E-04 delta_en =   0.110571E-06 tol =   0.100000E-10
 Iteration #          8
 delta_qm =   0.675205E-04 delta_en =   0.821833E-07 tol =   0.100000E-10
 Iteration #          9
 delta_qm =   0.517894E-04 delta_en =   0.630360E-07 tol =   0.100000E-10
 Iteration #         10
 delta_qm =   0.409393E-04 delta_en =   0.498297E-07 tol =   0.100000E-10
 Iteration #         11
 delta_qm =   0.320776E-04 delta_en =   0.390436E-07 tol =   0.100000E-10
 Iteration #         12
 delta_qm =   0.243992E-04 delta_en =   0.296978E-07 tol =   0.100000E-10
 Iteration #         13
 delta_qm =   0.184161E-04 delta_en =   0.224154E-07 tol =   0.100000E-10
 Iteration #         14
 delta_qm =   0.147334E-04 delta_en =   0.179330E-07 tol =   0.100000E-10
 Iteration #         15
 delta_qm =   0.132434E-04 delta_en =   0.161194E-07 tol =   0.100000E-10
 Iteration #         16
 delta_qm =   0.131093E-04 delta_en =   0.159561E-07 tol =   0.100000E-10
 Iteration #         17
 delta_qm =   0.135152E-04 delta_en =   0.164502E-07 tol =   0.100000E-10
 Iteration #         18
 delta_qm =   0.140286E-04 delta_en =   0.170751E-07 tol =   0.100000E-10
 Iteration #         19
 delta_qm =   0.144568E-04 delta_en =   0.175963E-07 tol =   0.100000E-10
 Iteration #         20
 delta_qm =   0.147037E-04 delta_en =   0.178968E-07 tol =   0.100000E-10
 Iteration #         21
 delta_qm =   0.147250E-04 delta_en =   0.179227E-07 tol =   0.100000E-10
 Iteration #         22
 delta_qm =   0.145181E-04 delta_en =   0.176708E-07 tol =   0.100000E-10
 Iteration #         23
 delta_qm =   0.141099E-04 delta_en =   0.171740E-07 tol =   0.100000E-10
 Iteration #         24
 delta_qm =   0.135421E-04 delta_en =   0.164829E-07 tol =   0.100000E-10
 Iteration #         25
 delta_qm =   0.128585E-04 delta_en =   0.156508E-07 tol =   0.100000E-10
 Iteration #         26
 delta_qm =   0.120979E-04 delta_en =   0.147250E-07 tol =   0.100000E-10
 Iteration #         27
 delta_qm =   0.112920E-04 delta_en =   0.137442E-07 tol =   0.100000E-10
 Iteration #         28
 delta_qm =   0.104659E-04 delta_en =   0.127386E-07 tol =   0.100000E-10
 Iteration #         29
 delta_qm =   0.963850E-05 delta_en =   0.117316E-07 tol =   0.100000E-10
 Iteration #         30
 delta_qm =   0.882453E-05 delta_en =   0.107409E-07 tol =   0.100000E-10
 Iteration #         31
 delta_qm =   0.803495E-05 delta_en =   0.977983E-08 tol =   0.100000E-10
 Iteration #         32
 delta_qm =   0.727803E-05 delta_en =   0.885853E-08 tol =   0.100000E-10
 Iteration #         33
 delta_qm =   0.655988E-05 delta_en =   0.798443E-08 tol =   0.100000E-10
 Iteration #         34
 delta_qm =   0.588487E-05 delta_en =   0.716284E-08 tol =   0.100000E-10
 Iteration #         35
 delta_qm =   0.525589E-05 delta_en =   0.639726E-08 tol =   0.100000E-10
 Iteration #         36
 delta_qm =   0.467450E-05 delta_en =   0.568961E-08 tol =   0.100000E-10
 Iteration #         37
 delta_qm =   0.414109E-05 delta_en =   0.504038E-08 tol =   0.100000E-10
 Iteration #         38
 delta_qm =   0.365506E-05 delta_en =   0.444880E-08 tol =   0.100000E-10
 Iteration #         39
 delta_qm =   0.321496E-05 delta_en =   0.391312E-08 tol =   0.100000E-10
 Iteration #         40
 delta_qm =   0.281871E-05 delta_en =   0.343083E-08 tol =   0.100000E-10
 Iteration #         41
 delta_qm =   0.246379E-05 delta_en =   0.299883E-08 tol =   0.100000E-10
 Iteration #         42
 delta_qm =   0.214738E-05 delta_en =   0.261371E-08 tol =   0.100000E-10
 Iteration #         43
 delta_qm =   0.186654E-05 delta_en =   0.227188E-08 tol =   0.100000E-10
 Iteration #         44
 delta_qm =   0.161828E-05 delta_en =   0.196971E-08 tol =   0.100000E-10
 Iteration #         45
 delta_qm =   0.139963E-05 delta_en =   0.170358E-08 tol =   0.100000E-10
 Iteration #         46
 delta_qm =   0.120775E-05 delta_en =   0.147003E-08 tol =   0.100000E-10
 Iteration #         47
 delta_qm =   0.103991E-05 delta_en =   0.126573E-08 tol =   0.100000E-10
 Iteration #         48
 delta_qm =   0.893539E-06 delta_en =   0.108758E-08 tol =   0.100000E-10
 Iteration #         49
 delta_qm =   0.766271E-06 delta_en =   0.932675E-09 tol =   0.100000E-10
 Iteration #         50
 delta_qm =   0.655911E-06 delta_en =   0.798349E-09 tol =   0.100000E-10
 Iteration #         51
 delta_qm =   0.560459E-06 delta_en =   0.682169E-09 tol =   0.100000E-10
 Iteration #         52
 delta_qm =   0.478103E-06 delta_en =   0.581929E-09 tol =   0.100000E-10
 Iteration #         53
 delta_qm =   0.407212E-06 delta_en =   0.495642E-09 tol =   0.100000E-10
 Iteration #         54
 delta_qm =   0.346323E-06 delta_en =   0.421531E-09 tol =   0.100000E-10
 Iteration #         55
 delta_qm =   0.294135E-06 delta_en =   0.358010E-09 tol =   0.100000E-10
 Iteration #         56
 delta_qm =   0.249493E-06 delta_en =   0.303673E-09 tol =   0.100000E-10
 Iteration #         57
 delta_qm =   0.211377E-06 delta_en =   0.257280E-09 tol =   0.100000E-10
 Iteration #         58
 delta_qm =   0.178891E-06 delta_en =   0.217739E-09 tol =   0.100000E-10
 Iteration #         59
 delta_qm =   0.151248E-06 delta_en =   0.184094E-09 tol =   0.100000E-10
 Iteration #         60
 delta_qm =   0.127763E-06 delta_en =   0.155509E-09 tol =   0.100000E-10
 Iteration #         61
 delta_qm =   0.107839E-06 delta_en =   0.131258E-09 tol =   0.100000E-10
 Iteration #         62
 delta_qm =   0.909589E-07 delta_en =   0.110712E-09 tol =   0.100000E-10
 Iteration #         63
 delta_qm =   0.766745E-07 delta_en =   0.933252E-10 tol =   0.100000E-10
 Iteration #         64
 delta_qm =   0.646002E-07 delta_en =   0.786288E-10 tol =   0.100000E-10
 Iteration #         65
 delta_qm =   0.544042E-07 delta_en =   0.662186E-10 tol =   0.100000E-10
 Iteration #         66
 delta_qm =   0.458017E-07 delta_en =   0.557480E-10 tol =   0.100000E-10
 Iteration #         67
 delta_qm =   0.385493E-07 delta_en =   0.469207E-10 tol =   0.100000E-10
 Iteration #         68
 delta_qm =   0.324391E-07 delta_en =   0.394836E-10 tol =   0.100000E-10
 Iteration #         69
 delta_qm =   0.272942E-07 delta_en =   0.332214E-10 tol =   0.100000E-10
 Iteration #         70
 delta_qm =   0.229640E-07 delta_en =   0.279509E-10 tol =   0.100000E-10
 Iteration #         71
 delta_qm =   0.193212E-07 delta_en =   0.235170E-10 tol =   0.100000E-10
 Iteration #         72
 delta_qm =   0.162575E-07 delta_en =   0.197880E-10 tol =   0.100000E-10
 Iteration #         73
 delta_qm =   0.136815E-07 delta_en =   0.166525E-10 tol =   0.100000E-10
 Iteration #         74
 delta_qm =   0.115159E-07 delta_en =   0.140166E-10 tol =   0.100000E-10
 Iteration #         75
 delta_qm =   0.969543E-08 delta_en =   0.118009E-10 tol =   0.100000E-10
 Iteration #         76
 delta_qm =   0.816521E-08 delta_en =   0.993837E-11 tol =   0.100000E-10
 Charges are converged, EXIT

%%%% ELECTRONS %%%%%%%%%%%%%%%%%%%%%%%%%%%%%%%%%%%%%%%%%%%%%%%%%%%%%%%%%%%%%%%%%
 number of electrons        =         89
 total electronic charge    =     89.0000000
 number of spin components  =  1

%%%% BOUNDARY %%%%%%%%%%%%%%%%%%%%%%%%%%%%%%%%%%%%%%%%%%%%%%%%%%%%%%%%%%%%%%%%%%
 boundary mode              = electronic           
 boundary is built as a function of a smooth density
 function type              =  1 
 using the optimal SCCS function with parameters 
 rhomax                     =      0.0050000 
 rhomin                     =      0.0001000 

%%%% DIELECTRIC %%%%%%%%%%%%%%%%%%%%%%%%%%%%%%%%%%%%%%%%%%%%%%%%%%%%%%%%%%%%%%%%%
 dielectric build on homogeneous background
 environment bulk permitt.  =    100.0000000 
 dielectric flags
 need gradient              =  F 
 need factor depend. sqrt   =  F 
 need gradient of logarithm =  T 

%%%% COMPUTE ELECTROSTATIC POTENTIAL %%%%%%%%%%%%%%%%%%%%%%%%%%%%%%%%%%%%%%%%%%%
 Starting from polarization: rhoiter =      1.402372 jellium =      0.000000
 Iteration #          1
 delta_qm =   0.159835E-03 delta_en =   0.194545E-06 tol =   0.100000E-10
 Iteration #          2
 delta_qm =   0.105977E-03 delta_en =   0.128991E-06 tol =   0.100000E-10
 Iteration #          3
 delta_qm =   0.761120E-04 delta_en =   0.926405E-07 tol =   0.100000E-10
 Iteration #          4
 delta_qm =   0.534182E-04 delta_en =   0.650186E-07 tol =   0.100000E-10
 Iteration #          5
 delta_qm =   0.418152E-04 delta_en =   0.508958E-07 tol =   0.100000E-10
 Iteration #          6
 delta_qm =   0.332395E-04 delta_en =   0.404579E-07 tol =   0.100000E-10
 Iteration #          7
 delta_qm =   0.252421E-04 delta_en =   0.307237E-07 tol =   0.100000E-10
 Iteration #          8
 delta_qm =   0.186128E-04 delta_en =   0.226547E-07 tol =   0.100000E-10
 Iteration #          9
 delta_qm =   0.138354E-04 delta_en =   0.168399E-07 tol =   0.100000E-10
 Iteration #         10
 delta_qm =   0.105396E-04 delta_en =   0.128284E-07 tol =   0.100000E-10
 Iteration #         11
 delta_qm =   0.811624E-05 delta_en =   0.987877E-08 tol =   0.100000E-10
 Iteration #         12
 delta_qm =   0.622347E-05 delta_en =   0.757497E-08 tol =   0.100000E-10
 Iteration #         13
 delta_qm =   0.479874E-05 delta_en =   0.584085E-08 tol =   0.100000E-10
 Iteration #         14
 delta_qm =   0.386305E-05 delta_en =   0.470195E-08 tol =   0.100000E-10
 Iteration #         15
 delta_qm =   0.336644E-05 delta_en =   0.409750E-08 tol =   0.100000E-10
 Iteration #         16
 delta_qm =   0.316401E-05 delta_en =   0.385111E-08 tol =   0.100000E-10
 Iteration #         17
 delta_qm =   0.310378E-05 delta_en =   0.377781E-08 tol =   0.100000E-10
 Iteration #         18
 delta_qm =   0.308969E-05 delta_en =   0.376066E-08 tol =   0.100000E-10
 Iteration #         19
 delta_qm =   0.307414E-05 delta_en =   0.374172E-08 tol =   0.100000E-10
 Iteration #         20
 delta_qm =   0.303486E-05 delta_en =   0.369392E-08 tol =   0.100000E-10
 Iteration #         21
 delta_qm =   0.296280E-05 delta_en =   0.360620E-08 tol =   0.100000E-10
 Iteration #         22
 delta_qm =   0.285726E-05 delta_en =   0.347774E-08 tol =   0.100000E-10
 Iteration #         23
 delta_qm =   0.272293E-05 delta_en =   0.331425E-08 tol =   0.100000E-10
 Iteration #         24
 delta_qm =   0.256707E-05 delta_en =   0.312454E-08 tol =   0.100000E-10
 Iteration #         25
 delta_qm =   0.239730E-05 delta_en =   0.291791E-08 tol =   0.100000E-10
 Iteration #         26
 delta_qm =   0.222038E-05 delta_en =   0.270256E-08 tol =   0.100000E-10
 Iteration #         27
 delta_qm =   0.204177E-05 delta_en =   0.248516E-08 tol =   0.100000E-10
 Iteration #         28
 delta_qm =   0.186560E-05 delta_en =   0.227073E-08 tol =   0.100000E-10
 Iteration #         29
 delta_qm =   0.169489E-05 delta_en =   0.206295E-08 tol =   0.100000E-10
 Iteration #         30
 delta_qm =   0.153171E-05 delta_en =   0.186434E-08 tol =   0.100000E-10
 Iteration #         31
 delta_qm =   0.137745E-05 delta_en =   0.167657E-08 tol =   0.100000E-10
 Iteration #         32
 delta_qm =   0.123292E-05 delta_en =   0.150067E-08 tol =   0.100000E-10
 Iteration #         33
 delta_qm =   0.109861E-05 delta_en =   0.133719E-08 tol =   0.100000E-10
 Iteration #         34
 delta_qm =   0.974724E-06 delta_en =   0.118640E-08 tol =   0.100000E-10
 Iteration #         35
 delta_qm =   0.861250E-06 delta_en =   0.104828E-08 tol =   0.100000E-10
 Iteration #         36
 delta_qm =   0.758022E-06 delta_en =   0.922635E-09 tol =   0.100000E-10
 Iteration #         37
 delta_qm =   0.664721E-06 delta_en =   0.809072E-09 tol =   0.100000E-10
 Iteration #         38
 delta_qm =   0.580901E-06 delta_en =   0.707050E-09 tol =   0.100000E-10
 Iteration #         39
 delta_qm =   0.506021E-06 delta_en =   0.615909E-09 tol =   0.100000E-10
 Iteration #         40
 delta_qm =   0.439469E-06 delta_en =   0.534905E-09 tol =   0.100000E-10
 Iteration #         41
 delta_qm =   0.380597E-06 delta_en =   0.463248E-09 tol =   0.100000E-10
 Iteration #         42
 delta_qm =   0.328744E-06 delta_en =   0.400134E-09 tol =   0.100000E-10
 Iteration #         43
 delta_qm =   0.283254E-06 delta_en =   0.344766E-09 tol =   0.100000E-10
 Iteration #         44
 delta_qm =   0.243495E-06 delta_en =   0.296372E-09 tol =   0.100000E-10
 Iteration #         45
 delta_qm =   0.208864E-06 delta_en =   0.254221E-09 tol =   0.100000E-10
 Iteration #         46
 delta_qm =   0.178797E-06 delta_en =   0.217625E-09 tol =   0.100000E-10
 Iteration #         47
 delta_qm =   0.152771E-06 delta_en =   0.185947E-09 tol =   0.100000E-10
 Iteration #         48
 delta_qm =   0.130306E-06 delta_en =   0.158604E-09 tol =   0.100000E-10
 Iteration #         49
 delta_qm =   0.110965E-06 delta_en =   0.135063E-09 tol =   0.100000E-10
 Iteration #         50
 delta_qm =   0.943552E-07 delta_en =   0.114846E-09 tol =   0.100000E-10
 Iteration #         51
 delta_qm =   0.801226E-07 delta_en =   0.975222E-10 tol =   0.100000E-10
 Iteration #         52
 delta_qm =   0.679536E-07 delta_en =   0.827104E-10 tol =   0.100000E-10
 Iteration #         53
 delta_qm =   0.575698E-07 delta_en =   0.700717E-10 tol =   0.100000E-10
 Iteration #         54
 delta_qm =   0.487261E-07 delta_en =   0.593075E-10 tol =   0.100000E-10
 Iteration #         55
 delta_qm =   0.412072E-07 delta_en =   0.501558E-10 tol =   0.100000E-10
 Iteration #         56
 delta_qm =   0.348251E-07 delta_en =   0.423878E-10 tol =   0.100000E-10
 Iteration #         57
 delta_qm =   0.294158E-07 delta_en =   0.358037E-10 tol =   0.100000E-10
 Iteration #         58
 delta_qm =   0.248370E-07 delta_en =   0.302307E-10 tol =   0.100000E-10
 Iteration #         59
 delta_qm =   0.209659E-07 delta_en =   0.255189E-10 tol =   0.100000E-10
 Iteration #         60
 delta_qm =   0.176964E-07 delta_en =   0.215393E-10 tol =   0.100000E-10
 Iteration #         61
 delta_qm =   0.149373E-07 delta_en =   0.181812E-10 tol =   0.100000E-10
 Iteration #         62
 delta_qm =   0.126108E-07 delta_en =   0.153493E-10 tol =   0.100000E-10
 Iteration #         63
 delta_qm =   0.106499E-07 delta_en =   0.129627E-10 tol =   0.100000E-10
 Iteration #         64
 delta_qm =   0.899794E-08 delta_en =   0.109519E-10 tol =   0.100000E-10
 Iteration #         65
 delta_qm =   0.760642E-08 delta_en =   0.925825E-11 tol =   0.100000E-10
 Charges are converged, EXIT

%%%% ELECTRONS %%%%%%%%%%%%%%%%%%%%%%%%%%%%%%%%%%%%%%%%%%%%%%%%%%%%%%%%%%%%%%%%%
 number of electrons        =         89
 total electronic charge    =     89.0000000
 number of spin components  =  1

%%%% BOUNDARY %%%%%%%%%%%%%%%%%%%%%%%%%%%%%%%%%%%%%%%%%%%%%%%%%%%%%%%%%%%%%%%%%%
 boundary mode              = electronic           
 boundary is built as a function of a smooth density
 function type              =  1 
 using the optimal SCCS function with parameters 
 rhomax                     =      0.0050000 
 rhomin                     =      0.0001000 

%%%% DIELECTRIC %%%%%%%%%%%%%%%%%%%%%%%%%%%%%%%%%%%%%%%%%%%%%%%%%%%%%%%%%%%%%%%%%
 dielectric build on homogeneous background
 environment bulk permitt.  =    100.0000000 
 dielectric flags
 need gradient              =  F 
 need factor depend. sqrt   =  F 
 need gradient of logarithm =  T 

%%%% COMPUTE ELECTROSTATIC POTENTIAL %%%%%%%%%%%%%%%%%%%%%%%%%%%%%%%%%%%%%%%%%%%
 Starting from polarization: rhoiter =      1.417956 jellium =      0.000000
 Iteration #          1
 delta_qm =   0.296515E-03 delta_en =   0.360906E-06 tol =   0.100000E-10
 Iteration #          2
 delta_qm =   0.229757E-03 delta_en =   0.279651E-06 tol =   0.100000E-10
 Iteration #          3
 delta_qm =   0.171494E-03 delta_en =   0.208736E-06 tol =   0.100000E-10
 Iteration #          4
 delta_qm =   0.124686E-03 delta_en =   0.151762E-06 tol =   0.100000E-10
 Iteration #          5
 delta_qm =   0.104347E-03 delta_en =   0.127008E-06 tol =   0.100000E-10
 Iteration #          6
 delta_qm =   0.841999E-04 delta_en =   0.102485E-06 tol =   0.100000E-10
 Iteration #          7
 delta_qm =   0.632505E-04 delta_en =   0.769861E-07 tol =   0.100000E-10
 Iteration #          8
 delta_qm =   0.469256E-04 delta_en =   0.571161E-07 tol =   0.100000E-10
 Iteration #          9
 delta_qm =   0.362769E-04 delta_en =   0.441548E-07 tol =   0.100000E-10
 Iteration #         10
 delta_qm =   0.289815E-04 delta_en =   0.352752E-07 tol =   0.100000E-10
 Iteration #         11
 delta_qm =   0.232156E-04 delta_en =   0.282571E-07 tol =   0.100000E-10
 Iteration #         12
 delta_qm =   0.188520E-04 delta_en =   0.229459E-07 tol =   0.100000E-10
 Iteration #         13
 delta_qm =   0.163975E-04 delta_en =   0.199584E-07 tol =   0.100000E-10
 Iteration #         14
 delta_qm =   0.157819E-04 delta_en =   0.192092E-07 tol =   0.100000E-10
 Iteration #         15
 delta_qm =   0.162183E-04 delta_en =   0.197403E-07 tol =   0.100000E-10
 Iteration #         16
 delta_qm =   0.169516E-04 delta_en =   0.206328E-07 tol =   0.100000E-10
 Iteration #         17
 delta_qm =   0.175994E-04 delta_en =   0.214214E-07 tol =   0.100000E-10
 Iteration #         18
 delta_qm =   0.180237E-04 delta_en =   0.219377E-07 tol =   0.100000E-10
 Iteration #         19
 delta_qm =   0.181815E-04 delta_en =   0.221298E-07 tol =   0.100000E-10
 Iteration #         20
 delta_qm =   0.180664E-04 delta_en =   0.219897E-07 tol =   0.100000E-10
 Iteration #         21
 delta_qm =   0.176951E-04 delta_en =   0.215377E-07 tol =   0.100000E-10
 Iteration #         22
 delta_qm =   0.171028E-04 delta_en =   0.208168E-07 tol =   0.100000E-10
 Iteration #         23
 delta_qm =   0.163358E-04 delta_en =   0.198833E-07 tol =   0.100000E-10
 Iteration #         24
 delta_qm =   0.154428E-04 delta_en =   0.187963E-07 tol =   0.100000E-10
 Iteration #         25
 delta_qm =   0.144680E-04 delta_en =   0.176099E-07 tol =   0.100000E-10
 Iteration #         26
 delta_qm =   0.134487E-04 delta_en =   0.163692E-07 tol =   0.100000E-10
 Iteration #         27
 delta_qm =   0.124142E-04 delta_en =   0.151100E-07 tol =   0.100000E-10
 Iteration #         28
 delta_qm =   0.113873E-04 delta_en =   0.138601E-07 tol =   0.100000E-10
 Iteration #         29
 delta_qm =   0.103851E-04 delta_en =   0.126404E-07 tol =   0.100000E-10
 Iteration #         30
 delta_qm =   0.942047E-05 delta_en =   0.114662E-07 tol =   0.100000E-10
 Iteration #         31
 delta_qm =   0.850247E-05 delta_en =   0.103489E-07 tol =   0.100000E-10
 Iteration #         32
 delta_qm =   0.763750E-05 delta_en =   0.929607E-08 tol =   0.100000E-10
 Iteration #         33
 delta_qm =   0.682967E-05 delta_en =   0.831281E-08 tol =   0.100000E-10
 Iteration #         34
 delta_qm =   0.608128E-05 delta_en =   0.740190E-08 tol =   0.100000E-10
 Iteration #         35
 delta_qm =   0.539309E-05 delta_en =   0.656425E-08 tol =   0.100000E-10
 Iteration #         36
 delta_qm =   0.476461E-05 delta_en =   0.579930E-08 tol =   0.100000E-10
 Iteration #         37
 delta_qm =   0.419433E-05 delta_en =   0.510518E-08 tol =   0.100000E-10
 Iteration #         38
 delta_qm =   0.367992E-05 delta_en =   0.447906E-08 tol =   0.100000E-10
 Iteration #         39
 delta_qm =   0.321843E-05 delta_en =   0.391734E-08 tol =   0.100000E-10
 Iteration #         40
 delta_qm =   0.280648E-05 delta_en =   0.341594E-08 tol =   0.100000E-10
 Iteration #         41
 delta_qm =   0.244045E-05 delta_en =   0.297042E-08 tol =   0.100000E-10
 Iteration #         42
 delta_qm =   0.211661E-05 delta_en =   0.257626E-08 tol =   0.100000E-10
 Iteration #         43
 delta_qm =   0.183123E-05 delta_en =   0.222890E-08 tol =   0.100000E-10
 Iteration #         44
 delta_qm =   0.158066E-05 delta_en =   0.192392E-08 tol =   0.100000E-10
 Iteration #         45
 delta_qm =   0.136141E-05 delta_en =   0.165705E-08 tol =   0.100000E-10
 Iteration #         46
 delta_qm =   0.117018E-05 delta_en =   0.142430E-08 tol =   0.100000E-10
 Iteration #         47
 delta_qm =   0.100390E-05 delta_en =   0.122190E-08 tol =   0.100000E-10
 Iteration #         48
 delta_qm =   0.859708E-06 delta_en =   0.104640E-08 tol =   0.100000E-10
 Iteration #         49
 delta_qm =   0.735015E-06 delta_en =   0.894632E-09 tol =   0.100000E-10
 Iteration #         50
 delta_qm =   0.627450E-06 delta_en =   0.763708E-09 tol =   0.100000E-10
 Iteration #         51
 delta_qm =   0.534879E-06 delta_en =   0.651034E-09 tol =   0.100000E-10
 Iteration #         52
 delta_qm =   0.455386E-06 delta_en =   0.554279E-09 tol =   0.100000E-10
 Iteration #         53
 delta_qm =   0.387265E-06 delta_en =   0.471364E-09 tol =   0.100000E-10
 Iteration #         54
 delta_qm =   0.329001E-06 delta_en =   0.400447E-09 tol =   0.100000E-10
 Iteration #         55
 delta_qm =   0.279256E-06 delta_en =   0.339899E-09 tol =   0.100000E-10
 Iteration #         56
 delta_qm =   0.236854E-06 delta_en =   0.288289E-09 tol =   0.100000E-10
 Iteration #         57
 delta_qm =   0.200765E-06 delta_en =   0.244363E-09 tol =   0.100000E-10
 Iteration #         58
 delta_qm =   0.170091E-06 delta_en =   0.207029E-09 tol =   0.100000E-10
 Iteration #         59
 delta_qm =   0.144052E-06 delta_en =   0.175335E-09 tol =   0.100000E-10
 Iteration #         60
 delta_qm =   0.121971E-06 delta_en =   0.148458E-09 tol =   0.100000E-10
 Iteration #         61
 delta_qm =   0.103263E-06 delta_en =   0.125688E-09 tol =   0.100000E-10
 Iteration #         62
 delta_qm =   0.874264E-07 delta_en =   0.106412E-09 tol =   0.100000E-10
 Iteration #         63
 delta_qm =   0.740282E-07 delta_en =   0.901043E-10 tol =   0.100000E-10
 Iteration #         64
 delta_qm =   0.626987E-07 delta_en =   0.763144E-10 tol =   0.100000E-10
 Iteration #         65
 delta_qm =   0.531215E-07 delta_en =   0.646574E-10 tol =   0.100000E-10
 Iteration #         66
 delta_qm =   0.450272E-07 delta_en =   0.548053E-10 tol =   0.100000E-10
 Iteration #         67
 delta_qm =   0.381863E-07 delta_en =   0.464789E-10 tol =   0.100000E-10
 Iteration #         68
 delta_qm =   0.324044E-07 delta_en =   0.394413E-10 tol =   0.100000E-10
 Iteration #         69
 delta_qm =   0.275162E-07 delta_en =   0.334917E-10 tol =   0.100000E-10
 Iteration #         70
 delta_qm =   0.233824E-07 delta_en =   0.284602E-10 tol =   0.100000E-10
 Iteration #         71
 delta_qm =   0.198849E-07 delta_en =   0.242031E-10 tol =   0.100000E-10
 Iteration #         72
 delta_qm =   0.169241E-07 delta_en =   0.205993E-10 tol =   0.100000E-10
 Iteration #         73
 delta_qm =   0.144160E-07 delta_en =   0.175466E-10 tol =   0.100000E-10
 Iteration #         74
 delta_qm =   0.122899E-07 delta_en =   0.149588E-10 tol =   0.100000E-10
 Iteration #         75
 delta_qm =   0.104861E-07 delta_en =   0.127633E-10 tol =   0.100000E-10
 Iteration #         76
 delta_qm =   0.895450E-08 delta_en =   0.108991E-10 tol =   0.100000E-10
 Iteration #         77
 delta_qm =   0.765280E-08 delta_en =   0.931469E-11 tol =   0.100000E-10
 Charges are converged, EXIT

%%%% ELECTRONS %%%%%%%%%%%%%%%%%%%%%%%%%%%%%%%%%%%%%%%%%%%%%%%%%%%%%%%%%%%%%%%%%
 number of electrons        =         89
 total electronic charge    =     89.0000000
 number of spin components  =  1

%%%% BOUNDARY %%%%%%%%%%%%%%%%%%%%%%%%%%%%%%%%%%%%%%%%%%%%%%%%%%%%%%%%%%%%%%%%%%
 boundary mode              = electronic           
 boundary is built as a function of a smooth density
 function type              =  1 
 using the optimal SCCS function with parameters 
 rhomax                     =      0.0050000 
 rhomin                     =      0.0001000 

%%%% DIELECTRIC %%%%%%%%%%%%%%%%%%%%%%%%%%%%%%%%%%%%%%%%%%%%%%%%%%%%%%%%%%%%%%%%%
 dielectric build on homogeneous background
 environment bulk permitt.  =    100.0000000 
 dielectric flags
 need gradient              =  F 
 need factor depend. sqrt   =  F 
 need gradient of logarithm =  T 

%%%% COMPUTE ELECTROSTATIC POTENTIAL %%%%%%%%%%%%%%%%%%%%%%%%%%%%%%%%%%%%%%%%%%%
 Starting from polarization: rhoiter =      1.450296 jellium =      0.000000
 Iteration #          1
 delta_qm =   0.244377E-03 delta_en =   0.297447E-06 tol =   0.100000E-10
 Iteration #          2
 delta_qm =   0.200179E-03 delta_en =   0.243650E-06 tol =   0.100000E-10
 Iteration #          3
 delta_qm =   0.150305E-03 delta_en =   0.182945E-06 tol =   0.100000E-10
 Iteration #          4
 delta_qm =   0.113893E-03 delta_en =   0.138626E-06 tol =   0.100000E-10
 Iteration #          5
 delta_qm =   0.957086E-04 delta_en =   0.116493E-06 tol =   0.100000E-10
 Iteration #          6
 delta_qm =   0.766140E-04 delta_en =   0.932515E-07 tol =   0.100000E-10
 Iteration #          7
 delta_qm =   0.574719E-04 delta_en =   0.699526E-07 tol =   0.100000E-10
 Iteration #          8
 delta_qm =   0.428461E-04 delta_en =   0.521507E-07 tol =   0.100000E-10
 Iteration #          9
 delta_qm =   0.333420E-04 delta_en =   0.405825E-07 tol =   0.100000E-10
 Iteration #         10
 delta_qm =   0.269117E-04 delta_en =   0.327559E-07 tol =   0.100000E-10
 Iteration #         11
 delta_qm =   0.220861E-04 delta_en =   0.268823E-07 tol =   0.100000E-10
 Iteration #         12
 delta_qm =   0.187900E-04 delta_en =   0.228704E-07 tol =   0.100000E-10
 Iteration #         13
 delta_qm =   0.172821E-04 delta_en =   0.210351E-07 tol =   0.100000E-10
 Iteration #         14
 delta_qm =   0.172213E-04 delta_en =   0.209611E-07 tol =   0.100000E-10
 Iteration #         15
 delta_qm =   0.178461E-04 delta_en =   0.217215E-07 tol =   0.100000E-10
 Iteration #         16
 delta_qm =   0.185730E-04 delta_en =   0.226064E-07 tol =   0.100000E-10
 Iteration #         17
 delta_qm =   0.191332E-04 delta_en =   0.232881E-07 tol =   0.100000E-10
 Iteration #         18
 delta_qm =   0.194368E-04 delta_en =   0.236578E-07 tol =   0.100000E-10
 Iteration #         19
 delta_qm =   0.194629E-04 delta_en =   0.236895E-07 tol =   0.100000E-10
 Iteration #         20
 delta_qm =   0.192172E-04 delta_en =   0.233904E-07 tol =   0.100000E-10
 Iteration #         21
 delta_qm =   0.187231E-04 delta_en =   0.227891E-07 tol =   0.100000E-10
 Iteration #         22
 delta_qm =   0.180191E-04 delta_en =   0.219322E-07 tol =   0.100000E-10
 Iteration #         23
 delta_qm =   0.171518E-04 delta_en =   0.208765E-07 tol =   0.100000E-10
 Iteration #         24
 delta_qm =   0.161686E-04 delta_en =   0.196798E-07 tol =   0.100000E-10
 Iteration #         25
 delta_qm =   0.151129E-04 delta_en =   0.183948E-07 tol =   0.100000E-10
 Iteration #         26
 delta_qm =   0.140205E-04 delta_en =   0.170652E-07 tol =   0.100000E-10
 Iteration #         27
 delta_qm =   0.129201E-04 delta_en =   0.157259E-07 tol =   0.100000E-10
 Iteration #         28
 delta_qm =   0.118339E-04 delta_en =   0.144037E-07 tol =   0.100000E-10
 Iteration #         29
 delta_qm =   0.107784E-04 delta_en =   0.131190E-07 tol =   0.100000E-10
 Iteration #         30
 delta_qm =   0.976593E-05 delta_en =   0.118867E-07 tol =   0.100000E-10
 Iteration #         31
 delta_qm =   0.880532E-05 delta_en =   0.107175E-07 tol =   0.100000E-10
 Iteration #         32
 delta_qm =   0.790250E-05 delta_en =   0.961862E-08 tol =   0.100000E-10
 Iteration #         33
 delta_qm =   0.706119E-05 delta_en =   0.859461E-08 tol =   0.100000E-10
 Iteration #         34
 delta_qm =   0.628326E-05 delta_en =   0.764775E-08 tol =   0.100000E-10
 Iteration #         35
 delta_qm =   0.556908E-05 delta_en =   0.677846E-08 tol =   0.100000E-10
 Iteration #         36
 delta_qm =   0.491775E-05 delta_en =   0.598569E-08 tol =   0.100000E-10
 Iteration #         37
 delta_qm =   0.432740E-05 delta_en =   0.526714E-08 tol =   0.100000E-10
 Iteration #         38
 delta_qm =   0.379537E-05 delta_en =   0.461957E-08 tol =   0.100000E-10
 Iteration #         39
 delta_qm =   0.331841E-05 delta_en =   0.403904E-08 tol =   0.100000E-10
 Iteration #         40
 delta_qm =   0.289290E-05 delta_en =   0.352112E-08 tol =   0.100000E-10
 Iteration #         41
 delta_qm =   0.251499E-05 delta_en =   0.306114E-08 tol =   0.100000E-10
 Iteration #         42
 delta_qm =   0.218074E-05 delta_en =   0.265431E-08 tol =   0.100000E-10
 Iteration #         43
 delta_qm =   0.188625E-05 delta_en =   0.229587E-08 tol =   0.100000E-10
 Iteration #         44
 delta_qm =   0.162773E-05 delta_en =   0.198121E-08 tol =   0.100000E-10
 Iteration #         45
 delta_qm =   0.140154E-05 delta_en =   0.170590E-08 tol =   0.100000E-10
 Iteration #         46
 delta_qm =   0.120426E-05 delta_en =   0.146578E-08 tol =   0.100000E-10
 Iteration #         47
 delta_qm =   0.103272E-05 delta_en =   0.125699E-08 tol =   0.100000E-10
 Iteration #         48
 delta_qm =   0.883972E-06 delta_en =   0.107594E-08 tol =   0.100000E-10
 Iteration #         49
 delta_qm =   0.755333E-06 delta_en =   0.919362E-09 tol =   0.100000E-10
 Iteration #         50
 delta_qm =   0.644363E-06 delta_en =   0.784293E-09 tol =   0.100000E-10
 Iteration #         51
 delta_qm =   0.548862E-06 delta_en =   0.668054E-09 tol =   0.100000E-10
 Iteration #         52
 delta_qm =   0.466858E-06 delta_en =   0.568242E-09 tol =   0.100000E-10
 Iteration #         53
 delta_qm =   0.396593E-06 delta_en =   0.482717E-09 tol =   0.100000E-10
 Iteration #         54
 delta_qm =   0.336504E-06 delta_en =   0.409580E-09 tol =   0.100000E-10
 Iteration #         55
 delta_qm =   0.285215E-06 delta_en =   0.347152E-09 tol =   0.100000E-10
 Iteration #         56
 delta_qm =   0.241511E-06 delta_en =   0.293958E-09 tol =   0.100000E-10
 Iteration #         57
 delta_qm =   0.204331E-06 delta_en =   0.248704E-09 tol =   0.100000E-10
 Iteration #         58
 delta_qm =   0.172749E-06 delta_en =   0.210263E-09 tol =   0.100000E-10
 Iteration #         59
 delta_qm =   0.145958E-06 delta_en =   0.177654E-09 tol =   0.100000E-10
 Iteration #         60
 delta_qm =   0.123259E-06 delta_en =   0.150026E-09 tol =   0.100000E-10
 Iteration #         61
 delta_qm =   0.104049E-06 delta_en =   0.126644E-09 tol =   0.100000E-10
 Iteration #         62
 delta_qm =   0.878074E-07 delta_en =   0.106876E-09 tol =   0.100000E-10
 Iteration #         63
 delta_qm =   0.740878E-07 delta_en =   0.901768E-10 tol =   0.100000E-10
 Iteration #         64
 delta_qm =   0.625069E-07 delta_en =   0.760810E-10 tol =   0.100000E-10
 Iteration #         65
 delta_qm =   0.527373E-07 delta_en =   0.641898E-10 tol =   0.100000E-10
 Iteration #         66
 delta_qm =   0.444997E-07 delta_en =   0.541634E-10 tol =   0.100000E-10
 Iteration #         67
 delta_qm =   0.375564E-07 delta_en =   0.457122E-10 tol =   0.100000E-10
 Iteration #         68
 delta_qm =   0.317055E-07 delta_en =   0.385907E-10 tol =   0.100000E-10
 Iteration #         69
 delta_qm =   0.267757E-07 delta_en =   0.325904E-10 tol =   0.100000E-10
 Iteration #         70
 delta_qm =   0.226222E-07 delta_en =   0.275349E-10 tol =   0.100000E-10
 Iteration #         71
 delta_qm =   0.191224E-07 delta_en =   0.232751E-10 tol =   0.100000E-10
 Iteration #         72
[...]
 Iteration #         43
 delta_qm =   0.398210E-05 delta_en =   0.484686E-08 tol =   0.100000E-10
 Iteration #         44
 delta_qm =   0.342882E-05 delta_en =   0.417342E-08 tol =   0.100000E-10
 Iteration #         45
 delta_qm =   0.294601E-05 delta_en =   0.358577E-08 tol =   0.100000E-10
 Iteration #         46
 delta_qm =   0.252593E-05 delta_en =   0.307447E-08 tol =   0.100000E-10
 Iteration #         47
 delta_qm =   0.216145E-05 delta_en =   0.263084E-08 tol =   0.100000E-10
 Iteration #         48
 delta_qm =   0.184605E-05 delta_en =   0.224694E-08 tol =   0.100000E-10
 Iteration #         49
 delta_qm =   0.157380E-05 delta_en =   0.191557E-08 tol =   0.100000E-10
 Iteration #         50
 delta_qm =   0.133937E-05 delta_en =   0.163023E-08 tol =   0.100000E-10
 Iteration #         51
 delta_qm =   0.113796E-05 delta_en =   0.138508E-08 tol =   0.100000E-10
 Iteration #         52
 delta_qm =   0.965311E-06 delta_en =   0.117494E-08 tol =   0.100000E-10
 Iteration #         53
 delta_qm =   0.817619E-06 delta_en =   0.995174E-09 tol =   0.100000E-10
 Iteration #         54
 delta_qm =   0.691531E-06 delta_en =   0.841704E-09 tol =   0.100000E-10
 Iteration #         55
 delta_qm =   0.584091E-06 delta_en =   0.710933E-09 tol =   0.100000E-10
 Iteration #         56
 delta_qm =   0.492707E-06 delta_en =   0.599704E-09 tol =   0.100000E-10
 Iteration #         57
 delta_qm =   0.415114E-06 delta_en =   0.505261E-09 tol =   0.100000E-10
 Iteration #         58
 delta_qm =   0.349338E-06 delta_en =   0.425201E-09 tol =   0.100000E-10
 Iteration #         59
 delta_qm =   0.293666E-06 delta_en =   0.357439E-09 tol =   0.100000E-10
 Iteration #         60
 delta_qm =   0.246616E-06 delta_en =   0.300171E-09 tol =   0.100000E-10
 Iteration #         61
 delta_qm =   0.206906E-06 delta_en =   0.251838E-09 tol =   0.100000E-10
 Iteration #         62
 delta_qm =   0.173435E-06 delta_en =   0.211099E-09 tol =   0.100000E-10
 Iteration #         63
 delta_qm =   0.145259E-06 delta_en =   0.176803E-09 tol =   0.100000E-10
 Iteration #         64
 delta_qm =   0.121566E-06 delta_en =   0.147965E-09 tol =   0.100000E-10
 Iteration #         65
 delta_qm =   0.101664E-06 delta_en =   0.123742E-09 tol =   0.100000E-10
 Iteration #         66
 delta_qm =   0.849645E-07 delta_en =   0.103416E-09 tol =   0.100000E-10
 Iteration #         67
 delta_qm =   0.709649E-07 delta_en =   0.863757E-10 tol =   0.100000E-10
 Iteration #         68
 delta_qm =   0.592390E-07 delta_en =   0.721035E-10 tol =   0.100000E-10
 Iteration #         69
 delta_qm =   0.494258E-07 delta_en =   0.601592E-10 tol =   0.100000E-10
 Iteration #         70
 delta_qm =   0.412196E-07 delta_en =   0.501709E-10 tol =   0.100000E-10
 Iteration #         71
 delta_qm =   0.343620E-07 delta_en =   0.418241E-10 tol =   0.100000E-10
 Iteration #         72
 delta_qm =   0.286352E-07 delta_en =   0.348537E-10 tol =   0.100000E-10
 Iteration #         73
 delta_qm =   0.238557E-07 delta_en =   0.290362E-10 tol =   0.100000E-10
 Iteration #         74
 delta_qm =   0.198688E-07 delta_en =   0.241836E-10 tol =   0.100000E-10
 Iteration #         75
 delta_qm =   0.165448E-07 delta_en =   0.201377E-10 tol =   0.100000E-10
 Iteration #         76
 delta_qm =   0.137746E-07 delta_en =   0.167659E-10 tol =   0.100000E-10
 Iteration #         77
 delta_qm =   0.114669E-07 delta_en =   0.139570E-10 tol =   0.100000E-10
 Iteration #         78
 delta_qm =   0.954493E-08 delta_en =   0.116177E-10 tol =   0.100000E-10
 Iteration #         79
 delta_qm =   0.794474E-08 delta_en =   0.967002E-11 tol =   0.100000E-10
 Charges are converged, EXIT

%%%% ELECTRONS %%%%%%%%%%%%%%%%%%%%%%%%%%%%%%%%%%%%%%%%%%%%%%%%%%%%%%%%%%%%%%%%%
 number of electrons        =         89
 total electronic charge    =     89.0000000
 number of spin components  =  1

%%%% BOUNDARY %%%%%%%%%%%%%%%%%%%%%%%%%%%%%%%%%%%%%%%%%%%%%%%%%%%%%%%%%%%%%%%%%%
 boundary mode              = electronic           
 boundary is built as a function of a smooth density
 function type              =  1 
 using the optimal SCCS function with parameters 
 rhomax                     =      0.0050000 
 rhomin                     =      0.0001000 

%%%% DIELECTRIC %%%%%%%%%%%%%%%%%%%%%%%%%%%%%%%%%%%%%%%%%%%%%%%%%%%%%%%%%%%%%%%%%
 dielectric build on homogeneous background
 environment bulk permitt.  =    100.0000000 
 dielectric flags
 need gradient              =  F 
 need factor depend. sqrt   =  F 
 need gradient of logarithm =  T 

%%%% COMPUTE ELECTROSTATIC POTENTIAL %%%%%%%%%%%%%%%%%%%%%%%%%%%%%%%%%%%%%%%%%%%
 Starting from polarization: rhoiter =      1.239524 jellium =      0.000000
 Iteration #          1
 delta_qm =   0.221934E-03 delta_en =   0.270129E-06 tol =   0.100000E-10
 Iteration #          2
 delta_qm =   0.120713E-03 delta_en =   0.146927E-06 tol =   0.100000E-10
 Iteration #          3
 delta_qm =   0.821926E-04 delta_en =   0.100042E-06 tol =   0.100000E-10
 Iteration #          4
 delta_qm =   0.661035E-04 delta_en =   0.804586E-07 tol =   0.100000E-10
 Iteration #          5
 delta_qm =   0.537359E-04 delta_en =   0.654052E-07 tol =   0.100000E-10
 Iteration #          6
 delta_qm =   0.415977E-04 delta_en =   0.506311E-07 tol =   0.100000E-10
 Iteration #          7
 delta_qm =   0.310189E-04 delta_en =   0.377550E-07 tol =   0.100000E-10
 Iteration #          8
 delta_qm =   0.229975E-04 delta_en =   0.279917E-07 tol =   0.100000E-10
 Iteration #          9
 delta_qm =   0.175161E-04 delta_en =   0.213199E-07 tol =   0.100000E-10
 Iteration #         10
 delta_qm =   0.140816E-04 delta_en =   0.171395E-07 tol =   0.100000E-10
 Iteration #         11
 delta_qm =   0.121743E-04 delta_en =   0.148181E-07 tol =   0.100000E-10
 Iteration #         12
 delta_qm =   0.113347E-04 delta_en =   0.137962E-07 tol =   0.100000E-10
 Iteration #         13
 delta_qm =   0.111404E-04 delta_en =   0.135597E-07 tol =   0.100000E-10
 Iteration #         14
 delta_qm =   0.112527E-04 delta_en =   0.136963E-07 tol =   0.100000E-10
 Iteration #         15
 delta_qm =   0.114528E-04 delta_en =   0.139399E-07 tol =   0.100000E-10
 Iteration #         16
 delta_qm =   0.116201E-04 delta_en =   0.141435E-07 tol =   0.100000E-10
 Iteration #         17
 delta_qm =   0.116939E-04 delta_en =   0.142333E-07 tol =   0.100000E-10
 Iteration #         18
 delta_qm =   0.116467E-04 delta_en =   0.141759E-07 tol =   0.100000E-10
 Iteration #         19
 delta_qm =   0.114715E-04 delta_en =   0.139627E-07 tol =   0.100000E-10
 Iteration #         20
 delta_qm =   0.111745E-04 delta_en =   0.136012E-07 tol =   0.100000E-10
 Iteration #         21
 delta_qm =   0.107703E-04 delta_en =   0.131091E-07 tol =   0.100000E-10
 Iteration #         22
 delta_qm =   0.102777E-04 delta_en =   0.125096E-07 tol =   0.100000E-10
 Iteration #         23
 delta_qm =   0.971758E-05 delta_en =   0.118279E-07 tol =   0.100000E-10
 Iteration #         24
 delta_qm =   0.911025E-05 delta_en =   0.110886E-07 tol =   0.100000E-10
 Iteration #         25
 delta_qm =   0.847465E-05 delta_en =   0.103150E-07 tol =   0.100000E-10
 Iteration #         26
 delta_qm =   0.782757E-05 delta_en =   0.952742E-08 tol =   0.100000E-10
 Iteration #         27
 delta_qm =   0.718325E-05 delta_en =   0.874317E-08 tol =   0.100000E-10
 Iteration #         28
 delta_qm =   0.655324E-05 delta_en =   0.797635E-08 tol =   0.100000E-10
 Iteration #         29
 delta_qm =   0.594649E-05 delta_en =   0.723783E-08 tol =   0.100000E-10
 Iteration #         30
 delta_qm =   0.536946E-05 delta_en =   0.653550E-08 tol =   0.100000E-10
 Iteration #         31
 delta_qm =   0.482649E-05 delta_en =   0.587461E-08 tol =   0.100000E-10
 Iteration #         32
 delta_qm =   0.432012E-05 delta_en =   0.525829E-08 tol =   0.100000E-10
 Iteration #         33
 delta_qm =   0.385150E-05 delta_en =   0.468789E-08 tol =   0.100000E-10
 Iteration #         34
 delta_qm =   0.342069E-05 delta_en =   0.416353E-08 tol =   0.100000E-10
 Iteration #         35
 delta_qm =   0.302703E-05 delta_en =   0.368438E-08 tol =   0.100000E-10
 Iteration #         36
 delta_qm =   0.266930E-05 delta_en =   0.324897E-08 tol =   0.100000E-10
 Iteration #         37
 delta_qm =   0.234593E-05 delta_en =   0.285538E-08 tol =   0.100000E-10
 Iteration #         38
 delta_qm =   0.205509E-05 delta_en =   0.250138E-08 tol =   0.100000E-10
 Iteration #         39
 delta_qm =   0.179476E-05 delta_en =   0.218451E-08 tol =   0.100000E-10
 Iteration #         40
 delta_qm =   0.156281E-05 delta_en =   0.190219E-08 tol =   0.100000E-10
 Iteration #         41
 delta_qm =   0.135704E-05 delta_en =   0.165174E-08 tol =   0.100000E-10
 Iteration #         42
 delta_qm =   0.117525E-05 delta_en =   0.143047E-08 tol =   0.100000E-10
 Iteration #         43
 delta_qm =   0.101525E-05 delta_en =   0.123572E-08 tol =   0.100000E-10
 Iteration #         44
 delta_qm =   0.874941E-06 delta_en =   0.106494E-08 tol =   0.100000E-10
 Iteration #         45
 delta_qm =   0.752311E-06 delta_en =   0.915684E-09 tol =   0.100000E-10
 Iteration #         46
 delta_qm =   0.645472E-06 delta_en =   0.785643E-09 tol =   0.100000E-10
 Iteration #         47
 delta_qm =   0.552667E-06 delta_en =   0.672684E-09 tol =   0.100000E-10
 Iteration #         48
 delta_qm =   0.472278E-06 delta_en =   0.574838E-09 tol =   0.100000E-10
 Iteration #         49
 delta_qm =   0.402828E-06 delta_en =   0.490306E-09 tol =   0.100000E-10
 Iteration #         50
 delta_qm =   0.342975E-06 delta_en =   0.417455E-09 tol =   0.100000E-10
 Iteration #         51
 delta_qm =   0.291512E-06 delta_en =   0.354817E-09 tol =   0.100000E-10
 Iteration #         52
 delta_qm =   0.247360E-06 delta_en =   0.301077E-09 tol =   0.100000E-10
 Iteration #         53
 delta_qm =   0.209558E-06 delta_en =   0.255066E-09 tol =   0.100000E-10
 Iteration #         54
 delta_qm =   0.177258E-06 delta_en =   0.215751E-09 tol =   0.100000E-10
 Iteration #         55
 delta_qm =   0.149711E-06 delta_en =   0.182223E-09 tol =   0.100000E-10
 Iteration #         56
 delta_qm =   0.126263E-06 delta_en =   0.153682E-09 tol =   0.100000E-10
 Iteration #         57
 delta_qm =   0.106340E-06 delta_en =   0.129432E-09 tol =   0.100000E-10
 Iteration #         58
 delta_qm =   0.894416E-07 delta_en =   0.108865E-09 tol =   0.100000E-10
 Iteration #         59
 delta_qm =   0.751339E-07 delta_en =   0.914501E-10 tol =   0.100000E-10
 Iteration #         60
 delta_qm =   0.630395E-07 delta_en =   0.767293E-10 tol =   0.100000E-10
 Iteration #         61
 delta_qm =   0.528321E-07 delta_en =   0.643052E-10 tol =   0.100000E-10
 Iteration #         62
 delta_qm =   0.442303E-07 delta_en =   0.538354E-10 tol =   0.100000E-10
 Iteration #         63
 delta_qm =   0.369919E-07 delta_en =   0.450252E-10 tol =   0.100000E-10
 Iteration #         64
 delta_qm =   0.309091E-07 delta_en =   0.376214E-10 tol =   0.100000E-10
 Iteration #         65
 delta_qm =   0.258040E-07 delta_en =   0.314077E-10 tol =   0.100000E-10
 Iteration #         66
 delta_qm =   0.215246E-07 delta_en =   0.261989E-10 tol =   0.100000E-10
 Iteration #         67
 delta_qm =   0.179413E-07 delta_en =   0.218374E-10 tol =   0.100000E-10
 Iteration #         68
 delta_qm =   0.149439E-07 delta_en =   0.181892E-10 tol =   0.100000E-10
 Iteration #         69
 delta_qm =   0.124390E-07 delta_en =   0.151403E-10 tol =   0.100000E-10
 Iteration #         70
 delta_qm =   0.103475E-07 delta_en =   0.125946E-10 tol =   0.100000E-10
 Iteration #         71
 delta_qm =   0.860252E-08 delta_en =   0.104707E-10 tol =   0.100000E-10
 Iteration #         72
 delta_qm =   0.714782E-08 delta_en =   0.870005E-11 tol =   0.100000E-10
 Charges are converged, EXIT

%%%% ELECTRONS %%%%%%%%%%%%%%%%%%%%%%%%%%%%%%%%%%%%%%%%%%%%%%%%%%%%%%%%%%%%%%%%%
 number of electrons        =         89
 total electronic charge    =     89.0000000
 number of spin components  =  1

%%%% BOUNDARY %%%%%%%%%%%%%%%%%%%%%%%%%%%%%%%%%%%%%%%%%%%%%%%%%%%%%%%%%%%%%%%%%%
 boundary mode              = electronic           
 boundary is built as a function of a smooth density
 function type              =  1 
 using the optimal SCCS function with parameters 
 rhomax                     =      0.0050000 
 rhomin                     =      0.0001000 

%%%% DIELECTRIC %%%%%%%%%%%%%%%%%%%%%%%%%%%%%%%%%%%%%%%%%%%%%%%%%%%%%%%%%%%%%%%%%
 dielectric build on homogeneous background
 environment bulk permitt.  =    100.0000000 
 dielectric flags
 need gradient              =  F 
 need factor depend. sqrt   =  F 
 need gradient of logarithm =  T 

%%%% COMPUTE ELECTROSTATIC POTENTIAL %%%%%%%%%%%%%%%%%%%%%%%%%%%%%%%%%%%%%%%%%%%
 Starting from polarization: rhoiter =      1.236535 jellium =      0.000000
 Iteration #          1
 delta_qm =   0.150436E-03 delta_en =   0.183105E-06 tol =   0.100000E-10
 Iteration #          2
 delta_qm =   0.117618E-03 delta_en =   0.143160E-06 tol =   0.100000E-10
 Iteration #          3
 delta_qm =   0.861849E-04 delta_en =   0.104901E-06 tol =   0.100000E-10
 Iteration #          4
 delta_qm =   0.603732E-04 delta_en =   0.734840E-07 tol =   0.100000E-10
 Iteration #          5
 delta_qm =   0.466911E-04 delta_en =   0.568306E-07 tol =   0.100000E-10
 Iteration #          6
 delta_qm =   0.348281E-04 delta_en =   0.423914E-07 tol =   0.100000E-10
 Iteration #          7
 delta_qm =   0.247389E-04 delta_en =   0.301113E-07 tol =   0.100000E-10
 Iteration #          8
 delta_qm =   0.184061E-04 delta_en =   0.224032E-07 tol =   0.100000E-10
 Iteration #          9
 delta_qm =   0.149216E-04 delta_en =   0.181620E-07 tol =   0.100000E-10
 Iteration #         10
 delta_qm =   0.122039E-04 delta_en =   0.148541E-07 tol =   0.100000E-10
 Iteration #         11
 delta_qm =   0.947053E-05 delta_en =   0.115272E-07 tol =   0.100000E-10
 Iteration #         12
 delta_qm =   0.699614E-05 delta_en =   0.851543E-08 tol =   0.100000E-10
 Iteration #         13
 delta_qm =   0.521611E-05 delta_en =   0.634885E-08 tol =   0.100000E-10
 Iteration #         14
 delta_qm =   0.421710E-05 delta_en =   0.513289E-08 tol =   0.100000E-10
 Iteration #         15
 delta_qm =   0.368098E-05 delta_en =   0.448034E-08 tol =   0.100000E-10
 Iteration #         16
 delta_qm =   0.327207E-05 delta_en =   0.398264E-08 tol =   0.100000E-10
 Iteration #         17
 delta_qm =   0.287823E-05 delta_en =   0.350326E-08 tol =   0.100000E-10
 Iteration #         18
 delta_qm =   0.252495E-05 delta_en =   0.307327E-08 tol =   0.100000E-10
 Iteration #         19
 delta_qm =   0.224932E-05 delta_en =   0.273779E-08 tol =   0.100000E-10
 Iteration #         20
 delta_qm =   0.204950E-05 delta_en =   0.249457E-08 tol =   0.100000E-10
 Iteration #         21
 delta_qm =   0.189775E-05 delta_en =   0.230987E-08 tol =   0.100000E-10
 Iteration #         22
 delta_qm =   0.176923E-05 delta_en =   0.215344E-08 tol =   0.100000E-10
 Iteration #         23
 delta_qm =   0.165256E-05 delta_en =   0.201144E-08 tol =   0.100000E-10
 Iteration #         24
 delta_qm =   0.154464E-05 delta_en =   0.188008E-08 tol =   0.100000E-10
 Iteration #         25
 delta_qm =   0.144364E-05 delta_en =   0.175715E-08 tol =   0.100000E-10
 Iteration #         26
 delta_qm =   0.134674E-05 delta_en =   0.163920E-08 tol =   0.100000E-10
 Iteration #         27
 delta_qm =   0.125123E-05 delta_en =   0.152295E-08 tol =   0.100000E-10
 Iteration #         28
 delta_qm =   0.115593E-05 delta_en =   0.140695E-08 tol =   0.100000E-10
 Iteration #         29
 delta_qm =   0.106132E-05 delta_en =   0.129180E-08 tol =   0.100000E-10
 Iteration #         30
 delta_qm =   0.968871E-06 delta_en =   0.117927E-08 tol =   0.100000E-10
 Iteration #         31
 delta_qm =   0.880120E-06 delta_en =   0.107125E-08 tol =   0.100000E-10
 Iteration #         32
 delta_qm =   0.796165E-06 delta_en =   0.969061E-09 tol =   0.100000E-10
 Iteration #         33
 delta_qm =   0.717554E-06 delta_en =   0.873379E-09 tol =   0.100000E-10
 Iteration #         34
 delta_qm =   0.644420E-06 delta_en =   0.784363E-09 tol =   0.100000E-10
 Iteration #         35
 delta_qm =   0.576680E-06 delta_en =   0.701912E-09 tol =   0.100000E-10
 Iteration #         36
 delta_qm =   0.514176E-06 delta_en =   0.625835E-09 tol =   0.100000E-10
 Iteration #         37
 delta_qm =   0.456746E-06 delta_en =   0.555934E-09 tol =   0.100000E-10
 Iteration #         38
 delta_qm =   0.404236E-06 delta_en =   0.492020E-09 tol =   0.100000E-10
 Iteration #         39
 delta_qm =   0.356479E-06 delta_en =   0.433893E-09 tol =   0.100000E-10
 Iteration #         40
 delta_qm =   0.313286E-06 delta_en =   0.381319E-09 tol =   0.100000E-10
 Iteration #         41
 delta_qm =   0.274431E-06 delta_en =   0.334026E-09 tol =   0.100000E-10
 Iteration #         42
 delta_qm =   0.239656E-06 delta_en =   0.291700E-09 tol =   0.100000E-10
 Iteration #         43
 delta_qm =   0.208680E-06 delta_en =   0.253998E-09 tol =   0.100000E-10
 Iteration #         44
 delta_qm =   0.181208E-06 delta_en =   0.220560E-09 tol =   0.100000E-10
 Iteration #         45
 delta_qm =   0.156943E-06 delta_en =   0.191025E-09 tol =   0.100000E-10
 Iteration #         46
 delta_qm =   0.135593E-06 delta_en =   0.165038E-09 tol =   0.100000E-10
 Iteration #         47
 delta_qm =   0.116877E-06 delta_en =   0.142258E-09 tol =   0.100000E-10
 Iteration #         48
 delta_qm =   0.100527E-06 delta_en =   0.122357E-09 tol =   0.100000E-10
 Iteration #         49
 delta_qm =   0.862883E-07 delta_en =   0.105027E-09 tol =   0.100000E-10
 Iteration #         50
 delta_qm =   0.739235E-07 delta_en =   0.899768E-10 tol =   0.100000E-10
 Iteration #         51
 delta_qm =   0.632120E-07 delta_en =   0.769391E-10 tol =   0.100000E-10
 Iteration #         52
 delta_qm =   0.539529E-07 delta_en =   0.656694E-10 tol =   0.100000E-10
 Iteration #         53
 delta_qm =   0.459653E-07 delta_en =   0.559472E-10 tol =   0.100000E-10
 Iteration #         54
 delta_qm =   0.390883E-07 delta_en =   0.475768E-10 tol =   0.100000E-10
 Iteration #         55
 delta_qm =   0.331794E-07 delta_en =   0.403847E-10 tol =   0.100000E-10
 Iteration #         56
 delta_qm =   0.281132E-07 delta_en =   0.342183E-10 tol =   0.100000E-10
 Iteration #         57
 delta_qm =   0.237792E-07 delta_en =   0.289432E-10 tol =   0.100000E-10
 Iteration #         58
 delta_qm =   0.200800E-07 delta_en =   0.244406E-10 tol =   0.100000E-10
 Iteration #         59
 delta_qm =   0.169294E-07 delta_en =   0.206058E-10 tol =   0.100000E-10
 Iteration #         60
 delta_qm =   0.142517E-07 delta_en =   0.173466E-10 tol =   0.100000E-10
 Iteration #         61
 delta_qm =   0.119804E-07 delta_en =   0.145821E-10 tol =   0.100000E-10
 Iteration #         62
 delta_qm =   0.100575E-07 delta_en =   0.122416E-10 tol =   0.100000E-10
 Iteration #         63
 delta_qm =   0.843230E-08 delta_en =   0.102635E-10 tol =   0.100000E-10
 Iteration #         64
 delta_qm =   0.706112E-08 delta_en =   0.859453E-11 tol =   0.100000E-10
 Charges are converged, EXIT

%%%% ELECTRONS %%%%%%%%%%%%%%%%%%%%%%%%%%%%%%%%%%%%%%%%%%%%%%%%%%%%%%%%%%%%%%%%%
 number of electrons        =         89
 total electronic charge    =     89.0000000
 number of spin components  =  1

%%%% BOUNDARY %%%%%%%%%%%%%%%%%%%%%%%%%%%%%%%%%%%%%%%%%%%%%%%%%%%%%%%%%%%%%%%%%%
 boundary mode              = electronic           
 boundary is built as a function of a smooth density
 function type              =  1 
 using the optimal SCCS function with parameters 
 rhomax                     =      0.0050000 
 rhomin                     =      0.0001000 

%%%% DIELECTRIC %%%%%%%%%%%%%%%%%%%%%%%%%%%%%%%%%%%%%%%%%%%%%%%%%%%%%%%%%%%%%%%%%
 dielectric build on homogeneous background
 environment bulk permitt.  =    100.0000000 
 dielectric flags
 need gradient              =  F 
 need factor depend. sqrt   =  F 
 need gradient of logarithm =  T 
