
     Program PWSCF v.6.1 (svn rev. 13369) starts on  4Oct2017 at 12:47:32 

     This program is part of the open-source Quantum ESPRESSO suite
     for quantum simulation of materials; please cite
         "P. Giannozzi et al., J. Phys.:Condens. Matter 21 395502 (2009);
          URL http://www.quantum-espresso.org", 
     in publications or presentations arising from this work. More details at
     http://www.quantum-espresso.org/quote

     Serial version
     Reading input from neutral.in

     Current dimensions of program PWSCF are:
     Max number of different atomic species (ntypx) = 10
     Max number of k-points (npk) =  40000
     Max angular momentum in pseudopotentials (lmaxx) =  3
               file C.pbe-rrkjus.UPF: wavefunction(s)  2S 2P renormalized
               file O.pbe-rrkjus.UPF: wavefunction(s)  2S renormalized

     gamma-point specific algorithms are used

     G-vector sticks info
     --------------------
     sticks:   dense  smooth     PW     G-vecs:    dense   smooth      PW
     Sum        2205    1099    269               330909   116965   14571



     bravais-lattice index     =            8
     lattice parameter (alat)  =      10.6881  a.u.
     unit-cell volume          =    4181.1215 (a.u.)^3
     number of atoms/cell      =           10
     number of atomic types    =            3
     number of electrons       =        90.00
     number of Kohn-Sham states=           80
     kinetic-energy cutoff     =      35.0000  Ry
     charge density cutoff     =     280.0000  Ry
     convergence threshold     =      5.0E-02
     mixing beta               =       0.7000
     number of iterations used =            8  plain     mixing
     Exchange-correlation      = PBE ( 1  4  3  4 0 0)


     Environ Module
     ==============

     Plese cite
         O. Andreussi, I. Dabo and N. Marzari, J. Chem. Phys. 136, 064102 (2012)         
     in publications or presentations arising from this work.

     compensation onset threshold      =               0.1000E+03 
     static permittivity               =                   100.00 
     epsilon calculation mode          =               electronic 

     Electrostatic Setup
     -------------------
     electrostatic problem to solve    = generalized              
     numerical solver adopted          = cg                       
     type of auxiliary density adopted = none                     
     type of core tool for poisson     = fft                      
     type of core tool for s(r) deriv  = analytic                 



     celldm(1)=  10.688100  celldm(2)=   0.866025  celldm(3)=   3.954220
     celldm(4)=   0.000000  celldm(5)=   0.000000  celldm(6)=   0.000000

     crystal axes: (cart. coord. in units of alat)
               a(1) = (   1.000000   0.000000   0.000000 )  
               a(2) = (   0.000000   0.866025   0.000000 )  
               a(3) = (   0.000000   0.000000   3.954220 )  

     reciprocal axes: (cart. coord. in units 2 pi/alat)
               b(1) = (  1.000000  0.000000  0.000000 )  
               b(2) = (  0.000000  1.154701  0.000000 )  
               b(3) = (  0.000000  0.000000  0.252894 )  


     PseudoPot. # 1 for C  read from file:
     ../../../pseudo/C.pbe-rrkjus.UPF
     MD5 check sum: 00fb224312de0c5b6853bd333518df6f
     Pseudo is Ultrasoft, Zval =  4.0
     Generated by new atomic code, or converted to UPF format
     Using radial grid of  627 points,  4 beta functions with: 
                l(1) =   0
                l(2) =   0
                l(3) =   1
                l(4) =   1
     Q(r) pseudized with 0 coefficients 


     PseudoPot. # 2 for O  read from file:
     ../../../pseudo/O.pbe-rrkjus.UPF
     MD5 check sum: 390ba29e75625707450f3bd3f0eb6be9
     Pseudo is Ultrasoft, Zval =  6.0
     Generated by new atomic code, or converted to UPF format
     Using radial grid of 1269 points,  4 beta functions with: 
                l(1) =   0
                l(2) =   0
                l(3) =   1
                l(4) =   1
     Q(r) pseudized with 0 coefficients 


     PseudoPot. # 3 for Pt read from file:
     ../../../pseudo/Pt.pbe-n-rrkjus.UPF
     MD5 check sum: df5be8f5ed4f66d4aed38ca70ec8d507
     Pseudo is Ultrasoft + core correction, Zval = 10.0
     Generated using "atomic" code by A. Dal Corso  v.5.0.2 svn rev. 9415
     Using radial grid of 1277 points,  6 beta functions with: 
                l(1) =   0
                l(2) =   0
                l(3) =   1
                l(4) =   1
                l(5) =   2
                l(6) =   2
     Q(r) pseudized with 0 coefficients 


     atomic species   valence    mass     pseudopotential
        C              4.00     1.00000     C ( 1.00)
        O              6.00     1.00000     O ( 1.00)
        Pt            10.00     1.00000     Pt( 1.00)

     No symmetry found



   Cartesian axes

     site n.     atom                  positions (alat units)
         1           C   tau(   1) = (   0.4991611   0.4347567   1.2070461  )
         2           O   tau(   2) = (   0.4991542   0.4322212   1.4109013  )
         3           Pt  tau(   3) = (   0.7542339   0.0091745   0.8413229  )
         4           Pt  tau(   4) = (   0.2441023   0.0091745   0.8413226  )
         5           Pt  tau(   5) = (   0.0000034   0.4416918   0.8391348  )
         6           Pt  tau(   6) = (   0.4991682   0.4417635   0.8776299  )
         7           Pt  tau(   7) = (   0.0000038   0.7300598   0.4308181  )
         8           Pt  tau(   8) = (   0.4991683   0.7202168   0.4447460  )
         9           Pt  tau(   9) = (   0.2524172   0.2949237   0.4386572  )
        10           Pt  tau(  10) = (   0.7459196   0.2949237   0.4386575  )

     number of k points=     1  Marzari-Vanderbilt smearing, width (Ry)=  0.0300
                       cart. coord. in units 2pi/alat
        k(    1) = (   0.0000000   0.0000000   0.0000000), wk =   2.0000000

     Dense  grid:   165455 G-vectors     FFT dimensions: (  60,  50, 225)

     Smooth grid:    58483 G-vectors     FFT dimensions: (  45,  36, 160)

     Estimated max dynamical RAM per process >     216.67MB

     Initial potential from superposition of free atoms
     Check: negative starting charge=   -0.001782

     starting charge   89.99859, renormalised to   90.00000

     negative rho (up, down):  1.782E-03 0.000E+00
     Starting wfc are   80 randomized atomic wfcs

     total cpu time spent up to now is       22.4 secs

     Self-consistent Calculation

     iteration #  1     ecut=    35.00 Ry     beta=0.70
     Davidson diagonalization with overlap
     ethr =  1.00E-02,  avg # of iterations =  8.0

     negative rho (up, down):  1.109E-03 0.000E+00

     add environment contribution to local potential
     polarization accuracy = 5.5E-05, # of iterations =  25

     total cpu time spent up to now is       45.5 secs

     total energy              =    -623.07845200 Ry
     Harris-Foulkes estimate   =    -624.45738907 Ry
     estimated scf accuracy    <       1.79975746 Ry
     electrostatic embedding   =       0.00000000 Ry
     correction to one-el term =       0.00000000 Ry

     iteration #  2     ecut=    35.00 Ry     beta=0.70
     Davidson diagonalization with overlap
     ethr =  2.00E-03,  avg # of iterations =  7.0

     negative rho (up, down):  1.480E-02 0.000E+00

     add environment contribution to local potential
     polarization accuracy = 4.6E-05, # of iterations =  41

     total cpu time spent up to now is       78.1 secs

     total energy              =    -621.61246581 Ry
     Harris-Foulkes estimate   =    -636.33683372 Ry
     estimated scf accuracy    <      17.32515877 Ry
     electrostatic embedding   =       0.11805584 Ry
     correction to one-el term =       9.82426856 Ry

     iteration #  3     ecut=    35.00 Ry     beta=0.70
     Davidson diagonalization with overlap
     ethr =  2.00E-03,  avg # of iterations = 11.0

     negative rho (up, down):  1.281E-02 0.000E+00

     add environment contribution to local potential
     polarization accuracy = 6.7E-05, # of iterations =  34

     total cpu time spent up to now is      107.5 secs

     total energy              =    -624.99361425 Ry
     Harris-Foulkes estimate   =    -633.95793708 Ry
     estimated scf accuracy    <      19.11470732 Ry
     electrostatic embedding   =      -0.03069111 Ry
     correction to one-el term =       7.86377786 Ry

     iteration #  4     ecut=    35.00 Ry     beta=0.70
     Davidson diagonalization with overlap
     ethr =  2.00E-03,  avg # of iterations =  6.0

     negative rho (up, down):  6.629E-03 0.000E+00

     add environment contribution to local potential
     polarization accuracy = 4.1E-05, # of iterations =  29

     total cpu time spent up to now is      132.8 secs

     total energy              =    -624.02985164 Ry
     Harris-Foulkes estimate   =    -635.50648659 Ry
     estimated scf accuracy    <       1.81255760 Ry
     electrostatic embedding   =       0.09633744 Ry
     correction to one-el term =      10.97480309 Ry

     iteration #  5     ecut=    35.00 Ry     beta=0.70
     Davidson diagonalization with overlap
     ethr =  2.00E-03,  avg # of iterations =  1.0

     negative rho (up, down):  9.191E-03 0.000E+00

     add environment contribution to local potential
     polarization accuracy = 8.7E-05, # of iterations =  32

     total cpu time spent up to now is      159.1 secs

     total energy              =    -624.07188715 Ry
     Harris-Foulkes estimate   =    -634.70533701 Ry
     estimated scf accuracy    <       1.09288869 Ry
     electrostatic embedding   =       0.09089320 Ry
     correction to one-el term =      10.31105774 Ry

     iteration #  6     ecut=    35.00 Ry     beta=0.70
     Davidson diagonalization with overlap
     ethr =  1.21E-03,  avg # of iterations =  1.0

     negative rho (up, down):  4.367E-03 0.000E+00

     add environment contribution to local potential
     polarization accuracy = 6.1E-05, # of iterations =  31

     total cpu time spent up to now is      184.9 secs

     total energy              =    -624.12451448 Ry
     Harris-Foulkes estimate   =    -634.46247783 Ry
     estimated scf accuracy    <       0.32360496 Ry
     electrostatic embedding   =       0.09350394 Ry
     correction to one-el term =      10.20497694 Ry

     iteration #  7     ecut=    35.00 Ry     beta=0.70
     Davidson diagonalization with overlap
     ethr =  3.60E-04,  avg # of iterations =  7.0

     negative rho (up, down):  3.408E-03 0.000E+00

     add environment contribution to local potential
     polarization accuracy = 3.2E-05, # of iterations =  33

     total cpu time spent up to now is      213.0 secs

     total energy              =    -624.03871418 Ry
     Harris-Foulkes estimate   =    -633.96236099 Ry
     estimated scf accuracy    <       0.18194047 Ry
     electrostatic embedding   =       0.08750724 Ry
     correction to one-el term =       9.80472369 Ry

     iteration #  8     ecut=    35.00 Ry     beta=0.70
     Davidson diagonalization with overlap
     ethr =  2.02E-04,  avg # of iterations =  3.0

     negative rho (up, down):  1.819E-03 0.000E+00

     total cpu time spent up to now is      219.7 secs

     End of self-consistent calculation

          k = 0.0000 0.0000 0.0000 (  7286 PWs)   bands (ev):

   -26.1365 -12.1032 -10.2173  -9.5483  -8.8859  -8.8689  -8.5964  -7.8517
    -7.6541  -6.7938  -6.7895  -6.6495  -6.3151  -6.3034  -6.1820  -6.1292
    -5.4836  -5.4507  -5.3685  -5.1400  -5.1059  -5.0661  -4.9558  -4.9258
    -4.8266  -4.7743  -4.6970  -4.6601  -4.6024  -4.2565  -4.1626  -3.4660
    -3.2613  -3.1548  -2.8473  -2.7753  -2.6848  -2.5803  -2.5101  -2.2647
    -2.0669  -2.0069  -1.8751  -1.8192  -1.7264  -1.6658  -1.5423  -0.5528
    -0.1940   0.1133   0.3848   1.0113   1.1310   1.8918   2.2989   2.3458
     2.5916   2.6863   3.3181   3.9019   4.0971   4.5295   5.3280   5.4373
     5.8885   6.0984   6.2756   6.7559   6.8602   6.9765   7.0402   7.1630
     7.2953   7.3668   7.9679   8.0732   8.1599   8.2740   8.3781   8.6261

     the Fermi energy is    -1.6367 ev

!    total energy              =    -624.03666979 Ry
     Harris-Foulkes estimate   =    -633.70182876 Ry
     estimated scf accuracy    <       0.03990981 Ry

     The total energy is the sum of the following terms:

     one-electron contribution =   -3979.15437815 Ry
     hartree contribution      =    2035.77746121 Ry
     xc contribution           =    -263.48706607 Ry
     ewald contribution        =    1573.20467954 Ry
     smearing contrib. (-TS)   =      -0.00574456 Ry
     electrostatic embedding   =       0.08826064 Ry
     correction to one-el term =       9.54011760 Ry

     convergence has been achieved in   8 iterations

     negative rho (up, down):  1.819E-03 0.000E+00

     Forces acting on atoms (cartesian axes, Ry/au):

     atom    1 type  1   force =    -0.11794592   -0.07726986    0.03852903
     atom    2 type  2   force =    -0.06269017   -0.04972482    0.10943537
     atom    3 type  3   force =     0.08595186    0.11012876   -0.01083612
     atom    4 type  3   force =    -0.11280614    0.10380358    0.00747648
     atom    5 type  3   force =     0.23071058   -0.05196330   -0.03721019
     atom    6 type  3   force =    -0.10039760   -0.05060484    0.05233993
     atom    7 type  3   force =     0.22936832    0.09264466   -0.02530770
     atom    8 type  3   force =    -0.10273933    0.07313509   -0.03944887
     atom    9 type  3   force =    -0.09328461   -0.07217008   -0.04376917
     atom   10 type  3   force =     0.04383300   -0.07797917   -0.05120875

     Total force =     0.511245     Total SCF correction =     0.592907
     SCF correction compared to forces is large: reduce conv_thr to get better values

     Writing output data file pwscf.save

     init_run     :     21.04s CPU     21.93s WALL (       1 calls)
     electrons    :    189.70s CPU    197.30s WALL (       1 calls)
     forces       :      8.71s CPU      9.03s WALL (       1 calls)

     Called by init_run:
     wfcinit      :      0.78s CPU      0.72s WALL (       1 calls)
     potinit      :      3.53s CPU      3.67s WALL (       1 calls)

     Called by electrons:
     c_bands      :     22.42s CPU     18.94s WALL (       8 calls)
     sum_band     :     16.09s CPU     16.81s WALL (       8 calls)
     v_of_rho     :      5.65s CPU      6.24s WALL (       9 calls)
     newd         :      9.35s CPU     11.85s WALL (       9 calls)
     mix_rho      :      0.51s CPU      0.70s WALL (       8 calls)

     Called by c_bands:
     init_us_2    :      0.19s CPU      0.22s WALL (      17 calls)
     regterg      :     21.32s CPU     17.79s WALL (       8 calls)

     Called by sum_band:
     sum_band:bec :      0.00s CPU      0.00s WALL (       8 calls)
     addusdens    :     12.59s CPU     13.30s WALL (       8 calls)

     Called by *egterg:
     h_psi        :     14.53s CPU     13.74s WALL (      53 calls)
     s_psi        :      1.34s CPU      0.47s WALL (      53 calls)
     g_psi        :      0.14s CPU      0.14s WALL (      44 calls)
     rdiaghg      :      1.02s CPU      0.99s WALL (      52 calls)

     Called by h_psi:
     h_psi:pot    :     14.40s CPU     13.60s WALL (      53 calls)
     h_psi:calbec :      0.99s CPU      0.55s WALL (      53 calls)
     vloc_psi     :     12.04s CPU     12.54s WALL (      53 calls)
     add_vuspsi   :      1.37s CPU      0.51s WALL (      53 calls)

     General routines
     calbec       :      1.45s CPU      0.82s WALL (      65 calls)
     fft          :     15.90s CPU     16.35s WALL (     708 calls)
     ffts         :      0.14s CPU      0.15s WALL (      17 calls)
     fftw         :     10.87s CPU     11.30s WALL (    2192 calls)
     interpolate  :      0.66s CPU      0.77s WALL (      17 calls)
     davcio       :      0.03s CPU      0.04s WALL (       1 calls)


     Environ routines
     calc_eelect  :      0.02s CPU      0.02s WALL (      16 calls)
     calc_velect  :    131.97s CPU    138.84s WALL (      14 calls)
     dielectric   :      0.39s CPU      0.51s WALL (       9 calls)
     calc_felect  :      0.91s CPU      0.94s WALL (       1 calls)

     PWSCF        :  3m39.99s CPU     3m49.11s WALL


   This run was terminated on:  12:51:21   4Oct2017            

=------------------------------------------------------------------------------=
   JOB DONE.
=------------------------------------------------------------------------------=

%%%% IONS %%%%%%%%%%%%%%%%%%%%%%%%%%%%%%%%%%%%%%%%%%%%%%%%%%%%%%%%%%%%%%%%%%%%%%
 number of ions             =         10
 ionic center of charge     =      0.3882415     0.3750182     0.7201831
 total ionic charge         =    -90.0000000
 ionic dipole               =      0.0000000     0.0000000     0.0000000
 ionic quadrupole (pc)      =   -730.5101255  -614.6110457  -876.7220256
 ionic quadrupole (gauss)   =   -741.7601255  -625.8610457  -887.9720256
 ion   1 type =  1 coordinates =      5.3350841     4.6467234    12.9010299
 ion   2 type =  2 coordinates =      5.3350096     4.6196233    15.0798543
 ion   3 type =  3 coordinates =      8.0613271     0.0980580     8.9921429
 ion   4 type =  3 coordinates =      2.6089894     0.0980583     8.9921406
 ion   5 type =  3 coordinates =      0.0000366     4.7208463     8.9687569
 ion   6 type =  3 coordinates =      5.3351596     4.7216127     9.3801964
 ion   7 type =  3 coordinates =      0.0000411     7.8029520     4.6046265
 ion   8 type =  3 coordinates =      5.3351612     7.6977491     4.7534894
 ion   9 type =  3 coordinates =      2.6978606     3.1521739     4.6884123
 ion  10 type =  3 coordinates =      7.9724637     3.1521745     4.6884152

%%%% SYSTEM %%%%%%%%%%%%%%%%%%%%%%%%%%%%%%%%%%%%%%%%%%%%%%%%%%%%%%%%%%%%%%%%%%%%
 system is built from all present ionic types
 system defined dimension   =  0 
 system defined axis        =  3 
 system center              =      0.3882415     0.3750182     0.7201831 
 system width               =      1.5145225 

%%%% ELECTRONS %%%%%%%%%%%%%%%%%%%%%%%%%%%%%%%%%%%%%%%%%%%%%%%%%%%%%%%%%%%%%%%%%
 number of electrons        =         90
 total electronic charge    =     90.0000000
 number of spin components  =  1

%%%% BOUNDARY %%%%%%%%%%%%%%%%%%%%%%%%%%%%%%%%%%%%%%%%%%%%%%%%%%%%%%%%%%%%%%%%%%
 boundary mode              = electronic           
 boundary is built as a function of a smooth density
 function type              =  2 
 using the modified SCCS function with parameters 
 rhomax                     =      0.0050000 
 rhomin                     =      0.0001000 

%%%% DIELECTRIC %%%%%%%%%%%%%%%%%%%%%%%%%%%%%%%%%%%%%%%%%%%%%%%%%%%%%%%%%%%%%%%%%
 dielectric build on homogeneous background
 environment bulk permitt.  =    100.0000000 
 dielectric flags
 need gradient              =  F 
 need factor depend. sqrt   =  T 
 need gradient of logarithm =  T 

%%%% COMPUTE ELECTROSTATIC POTENTIAL %%%%%%%%%%%%%%%%%%%%%%%%%%%%%%%%%%%%%%%%%%%
 Iteration #          1
  pAp =  1284.9445189326873  rzold =  1284.0456454612556  alpha =  0.9993004573674681
 delta_qm =   0.401014E-01 delta_en =   0.108548E+04 tol =   0.100000E-03
 Iteration #          2
  pAp =  331.44999620253367  rzold =  13.489352663645745  alpha =  0.04069800216682769
 delta_qm =   0.254328E-01 delta_en =   0.436609E+03 tol =   0.100000E-03
 Iteration #          3
  pAp =  12.32694957011337  rzold =  1.6205285681085324  alpha =  0.13146225340594367
 delta_qm =   0.118333E-01 delta_en =   0.945187E+02 tol =   0.100000E-03
 Iteration #          4
  pAp =  4.363492440448822  rzold =  0.3789140323224631  alpha =  0.08683732984386439
 delta_qm =   0.117656E-01 delta_en =   0.934398E+02 tol =   0.100000E-03
 Iteration #          5
  pAp =  0.10333060546623714  rzold =  0.041813865967563625  alpha =  0.404660998345027
 delta_qm =   0.866783E-02 delta_en =   0.507137E+02 tol =   0.100000E-03
 Iteration #          6
  pAp =  0.01764175771642193  rzold =  0.018718026667414015  alpha =  1.0610069001225562
 delta_qm =   0.569527E-02 delta_en =   0.218944E+02 tol =   0.100000E-03
 Iteration #          7
  pAp =  0.04507675532010899  rzold =  0.022208005891139148  alpha =  0.49267090617837866
 delta_qm =   0.567928E-02 delta_en =   0.217716E+02 tol =   0.100000E-03
 Iteration #          8
  pAp =  0.032415991421345006  rzold =  0.01504619881659406  alpha =  0.4641597605645517
 delta_qm =   0.424209E-02 delta_en =   0.121469E+02 tol =   0.100000E-03
 Iteration #          9
  pAp =  0.006727741484841318  rzold =  0.004111790470225678  alpha =  0.6111695105244758
 delta_qm =   0.286859E-02 delta_en =   0.555443E+01 tol =   0.100000E-03
 Iteration #         10
  pAp =  0.0029352417351395307  rzold =  0.0020246344596715326  alpha =  0.6897675361567073
 delta_qm =   0.169877E-02 delta_en =   0.194794E+01 tol =   0.100000E-03
 Iteration #         11
  pAp =  0.003819956397019719  rzold =  0.0016039918392466738  alpha =  0.41989794451530593
 delta_qm =   0.134419E-02 delta_en =   0.121962E+01 tol =   0.100000E-03
 Iteration #         12
  pAp =  0.001078482407871332  rzold =  0.0005369960644647789  alpha =  0.49791824191613987
 delta_qm =   0.851405E-03 delta_en =   0.489301E+00 tol =   0.100000E-03
 Iteration #         13
  pAp =  0.00027805992711394154  rzold =  0.00013910886851693237  alpha =  0.5002837696203857
 delta_qm =   0.439529E-03 delta_en =   0.130400E+00 tol =   0.100000E-03
 Iteration #         14
  pAp =  0.00010471051283966261  rzold =  0.00003640514053219602  alpha =  0.3476741689532281
 delta_qm =   0.273410E-03 delta_en =   0.504584E-01 tol =   0.100000E-03
 Iteration #         15
  pAp =  0.0021312763025978197  rzold =  0.00013052943224759562  alpha =  0.06124472556115454
 delta_qm =   0.191289E-03 delta_en =   0.246993E-01 tol =   0.100000E-03
 Iteration #         16
  pAp =  0.000020484560211034086  rzold =  0.000012026973919752735  alpha =  0.5871238530800559
 delta_qm =   0.113245E-03 delta_en =   0.865643E-02 tol =   0.100000E-03
 Iteration #         17
  pAp =  0.000003455186376599063  rzold =  0.0000023924449081405507  alpha =  0.692421376844925
 delta_qm =   0.690680E-04 delta_en =   0.322002E-02 tol =   0.100000E-03
 Iteration #         18
  pAp =  0.0000011406751888670049  rzold =  8.080872492206779E-7  alpha =  0.7084288823914232
 delta_qm =   0.355793E-04 delta_en =   0.854476E-03 tol =   0.100000E-03
 Iteration #         19
  pAp =  0.000014357872594838811  rzold =  0.0000015735755632247803  alpha =  0.10959670750877325
 delta_qm =   0.394468E-04 delta_en =   0.105033E-02 tol =   0.100000E-03
 Iteration #         20
  pAp =  6.748582620331768E-7  rzold =  6.838915347497904E-7  alpha =  1.0133854369499733
 delta_qm =   0.684529E-04 delta_en =   0.316291E-02 tol =   0.100000E-03
 Iteration #         21
  pAp =  5.529489994979823E-7  rzold =  7.409491995632369E-7  alpha =  1.3399955515534676
 delta_qm =   0.719486E-04 delta_en =   0.349420E-02 tol =   0.100000E-03
 Iteration #         22
  pAp =  7.443294900764375E-7  rzold =  7.513191705647701E-7  alpha =  1.0093905731017252
 delta_qm =   0.400503E-04 delta_en =   0.108272E-02 tol =   0.100000E-03
 Iteration #         23
  pAp =  5.846034653981311E-7  rzold =  4.3449098743453134E-7  alpha =  0.7432234209193936
 delta_qm =   0.243940E-04 delta_en =   0.401671E-03 tol =   0.100000E-03
 Iteration #         24
  pAp =  1.2104650035920605E-7  rzold =  8.353605540253649E-8  alpha =  0.6901154114711525
 delta_qm =   0.122648E-04 delta_en =   0.101537E-03 tol =   0.100000E-03
 Iteration #         25
  pAp =  1.0363159143763231E-7  rzold =  2.607749111985053E-8  alpha =  0.25163650155410877
 delta_qm =   0.900177E-05 delta_en =   0.546965E-04 tol =   0.100000E-03
 Charges are converged, exit!

%%%% ELECTRONS %%%%%%%%%%%%%%%%%%%%%%%%%%%%%%%%%%%%%%%%%%%%%%%%%%%%%%%%%%%%%%%%%
 number of electrons        =         90
 total electronic charge    =     90.0000000
 number of spin components  =  1

%%%% BOUNDARY %%%%%%%%%%%%%%%%%%%%%%%%%%%%%%%%%%%%%%%%%%%%%%%%%%%%%%%%%%%%%%%%%%
 boundary mode              = electronic           
 boundary is built as a function of a smooth density
 function type              =  2 
 using the modified SCCS function with parameters 
 rhomax                     =      0.0050000 
 rhomin                     =      0.0001000 

%%%% DIELECTRIC %%%%%%%%%%%%%%%%%%%%%%%%%%%%%%%%%%%%%%%%%%%%%%%%%%%%%%%%%%%%%%%%%
 dielectric build on homogeneous background
 environment bulk permitt.  =    100.0000000 
 dielectric flags
 need gradient              =  F 
 need factor depend. sqrt   =  T 
 need gradient of logarithm =  T 

%%%% COMPUTE ELECTROSTATIC POTENTIAL %%%%%%%%%%%%%%%%%%%%%%%%%%%%%%%%%%%%%%%%%%%
 Warning: bad guess with residual norm =   0.110920E+07, reset to no guess
 Iteration #          1
  pAp =  1276.8614338132115  rzold =  1276.1403053610488  alpha =  0.9994352335867729
 delta_qm =   0.129119E+00 delta_en =   0.112534E+05 tol =   0.100000E-03
 Iteration #          2
  pAp =  332.8401099758641  rzold =  13.62929658961513  alpha =  0.04094848000922563
 delta_qm =   0.608634E-01 delta_en =   0.250044E+04 tol =   0.100000E-03
 Iteration #          3
  pAp =  27.857619600031864  rzold =  1.2528169090077717  alpha =  0.04497214503590747
 delta_qm =   0.463047E-01 delta_en =   0.144729E+04 tol =   0.100000E-03
 Iteration #          4
  pAp =  2.3647963336320337  rzold =  0.33368890691737757  alpha =  0.14110682690583878
 delta_qm =   0.303204E-01 delta_en =   0.620546E+03 tol =   0.100000E-03
 Iteration #          5
  pAp =  0.09934081484570255  rzold =  0.038510082091966345  alpha =  0.3876561929935919
 delta_qm =   0.203249E-01 delta_en =   0.278843E+03 tol =   0.100000E-03
 Iteration #          6
  pAp =  0.03829724746988085  rzold =  0.02181584971933278  alpha =  0.5696453703752473
 delta_qm =   0.136060E-01 delta_en =   0.124958E+03 tol =   0.100000E-03
 Iteration #          7
  pAp =  0.0449212565664014  rzold =  0.023365069067220513  alpha =  0.5201339155035187
 delta_qm =   0.156449E-01 delta_en =   0.165216E+03 tol =   0.100000E-03
 Iteration #          8
  pAp =  0.03448770458683987  rzold =  0.022979106306566827  alpha =  0.6662985136834941
 delta_qm =   0.168137E-01 delta_en =   0.190823E+03 tol =   0.100000E-03
 Iteration #          9
  pAp =  0.013415813910058678  rzold =  0.010567539646258135  alpha =  0.7876927719111388
 delta_qm =   0.141083E-01 delta_en =   0.134355E+03 tol =   0.100000E-03
 Iteration #         10
  pAp =  0.019852076957577205  rzold =  0.012498692196505028  alpha =  0.6295911618322881
 delta_qm =   0.141433E-01 delta_en =   0.135022E+03 tol =   0.100000E-03
 Iteration #         11
  pAp =  0.019381787623365447  rzold =  0.015745952134771517  alpha =  0.8124096930971012
 delta_qm =   0.171599E-01 delta_en =   0.198762E+03 tol =   0.100000E-03
 Iteration #         12
  pAp =  0.02475246300333137  rzold =  0.018692931545184335  alpha =  0.7551948079941985
 delta_qm =   0.172774E-01 delta_en =   0.201493E+03 tol =   0.100000E-03
 Iteration #         13
  pAp =  0.014125195880807823  rzold =  0.012679437590968626  alpha =  0.8976468502073252
 delta_qm =   0.137880E-01 delta_en =   0.128324E+03 tol =   0.100000E-03
 Iteration #         14
  pAp =  0.2247830441881074  rzold =  0.019046912803786023  alpha =  0.08473465101685698
 delta_qm =   0.162743E-01 delta_en =   0.178776E+03 tol =   0.100000E-03
 Iteration #         15
  pAp =  0.09386564275740843  rzold =  0.03413860608806304  alpha =  0.3636965036961686
 delta_qm =   0.164446E-01 delta_en =   0.182536E+03 tol =   0.100000E-03
 Iteration #         16
  pAp =  0.01671146457586257  rzold =  0.013551684758085374  alpha =  0.8109214304088542
 delta_qm =   0.184098E-01 delta_en =   0.228771E+03 tol =   0.100000E-03
 Iteration #         17
  pAp =  0.0660258215356484  rzold =  0.020065852700810766  alpha =  0.3039091712017077
 delta_qm =   0.203724E-01 delta_en =   0.280149E+03 tol =   0.100000E-03
 Iteration #         18
  pAp =  0.42504536503406315  rzold =  0.0791471488261892  alpha =  0.18620870932175992
 delta_qm =   0.228918E-01 delta_en =   0.353724E+03 tol =   0.100000E-03
 Iteration #         19
  pAp =  0.01420640705850972  rzold =  0.029992866093778534  alpha =  2.1112210828713818
 delta_qm =   0.508950E-01 delta_en =   0.174846E+04 tol =   0.100000E-03
 Iteration #         20
  pAp =  0.05037071517490786  rzold =  0.1422805971168773  alpha =  2.8246689891700063
 delta_qm =   0.187696E+00 delta_en =   0.237802E+05 tol =   0.100000E-03
 Iteration #         21
  pAp =  -1.3136267588752721  rzold =  1.204681019189366  alpha =  -0.9170649204959972
 delta_qm =   0.114224E+00 delta_en =   0.880678E+04 tol =   0.100000E-03
 Iteration #         22
  pAp =  1.8063185333487204  rzold =  0.6937288497893542  alpha =  0.38405676351183504
 delta_qm =   0.376496E-01 delta_en =   0.956805E+03 tol =   0.100000E-03
 Iteration #         23
  pAp =  0.1633708218051817  rzold =  0.08439257786359106  alpha =  0.5165706882727717
 delta_qm =   0.216577E-01 delta_en =   0.316613E+03 tol =   0.100000E-03
 Iteration #         24
  pAp =  0.04551275625690814  rzold =  0.022928885244422385  alpha =  0.5037903025471486
 delta_qm =   0.118052E-01 delta_en =   0.940704E+02 tol =   0.100000E-03
 Iteration #         25
  pAp =  0.21557245013172557  rzold =  0.011744650817782039  alpha =  0.054481223415169554
 delta_qm =   0.113956E-01 delta_en =   0.876550E+02 tol =   0.100000E-03
 Iteration #         26
  pAp =  0.024273983918780946  rzold =  0.009790518974246935  alpha =  0.40333383292191866
 delta_qm =   0.612720E-02 delta_en =   0.253413E+02 tol =   0.100000E-03
 Iteration #         27
  pAp =  0.003456303839928687  rzold =  0.002167754573853019  alpha =  0.627188659981278
 delta_qm =   0.412915E-02 delta_en =   0.115087E+02 tol =   0.100000E-03
 Iteration #         28
  pAp =  0.001151870802838243  rzold =  0.0007261927906478859  alpha =  0.6304463910870263
 delta_qm =   0.239659E-02 delta_en =   0.387696E+01 tol =   0.100000E-03
 Iteration #         29
  pAp =  0.00037493503551232487  rzold =  0.00021104485910508568  alpha =  0.5628838041681176
 delta_qm =   0.141380E-02 delta_en =   0.134921E+01 tol =   0.100000E-03
 Iteration #         30
  pAp =  0.00751199275802544  rzold =  0.0004962387186049726  alpha =  0.06605953101789347
 delta_qm =   0.112109E-02 delta_en =   0.848364E+00 tol =   0.100000E-03
 Iteration #         31
  pAp =  0.00012125205578355589  rzold =  0.00007034649545849967  alpha =  0.5801674454416963
 delta_qm =   0.643237E-03 delta_en =   0.279284E+00 tol =   0.100000E-03
 Iteration #         32
  pAp =  0.00003327755044621018  rzold =  0.000021903382180748227  alpha =  0.6582029592638691
 delta_qm =   0.388539E-03 delta_en =   0.101900E+00 tol =   0.100000E-03
 Iteration #         33
  pAp =  0.000010766970374753426  rzold =  0.000006559685704238474  alpha =  0.6092415485436588
 delta_qm =   0.244461E-03 delta_en =   0.403389E-01 tol =   0.100000E-03
 Iteration #         34
  pAp =  0.000010082862334829474  rzold =  0.000003454976819379165  alpha =  0.3426583349694814
 delta_qm =   0.181555E-03 delta_en =   0.222495E-01 tol =   0.100000E-03
 Iteration #         35
  pAp =  0.0000062062963920924365  rzold =  0.0000023894090494666754  alpha =  0.38499757319213246
 delta_qm =   0.110680E-03 delta_en =   0.826878E-02 tol =   0.100000E-03
 Iteration #         36
  pAp =  0.00003082959762024099  rzold =  0.000001544246019721102  alpha =  0.05008972347752071
 delta_qm =   0.103374E-03 delta_en =   0.721322E-02 tol =   0.100000E-03
 Iteration #         37
  pAp =  0.0000029053415214806676  rzold =  0.0000010197970927708493  alpha =  0.3510076475453818
 delta_qm =   0.739111E-04 delta_en =   0.368743E-02 tol =   0.100000E-03
 Iteration #         38
  pAp =  2.780553150124294E-7  rzold =  1.9547712462756348E-7  alpha =  0.7030152421967745
 delta_qm =   0.377908E-04 delta_en =   0.963999E-03 tol =   0.100000E-03
 Iteration #         39
  pAp =  1.0713596595858807E-7  rzold =  6.739613200362642E-8  alpha =  0.6290710257811786
 delta_qm =   0.212005E-04 delta_en =   0.303385E-03 tol =   0.100000E-03
 Iteration #         40
  pAp =  4.801701629411152E-8  rzold =  2.68289130342462E-8  alpha =  0.5587376123063339
 delta_qm =   0.134468E-04 delta_en =   0.122051E-03 tol =   0.100000E-03
 Iteration #         41
  pAp =  1.6104387705979304E-8  rzold =  8.75084598216991E-9  alpha =  0.5433827191654644
 delta_qm =   0.821108E-05 delta_en =   0.455097E-04 tol =   0.100000E-03
 Charges are converged, exit!

%%%% ELECTRONS %%%%%%%%%%%%%%%%%%%%%%%%%%%%%%%%%%%%%%%%%%%%%%%%%%%%%%%%%%%%%%%%%
 number of electrons        =         90
 total electronic charge    =     90.0000000
 number of spin components  =  1

%%%% BOUNDARY %%%%%%%%%%%%%%%%%%%%%%%%%%%%%%%%%%%%%%%%%%%%%%%%%%%%%%%%%%%%%%%%%%
 boundary mode              = electronic           
 boundary is built as a function of a smooth density
 function type              =  2 
 using the modified SCCS function with parameters 
 rhomax                     =      0.0050000 
 rhomin                     =      0.0001000 

%%%% DIELECTRIC %%%%%%%%%%%%%%%%%%%%%%%%%%%%%%%%%%%%%%%%%%%%%%%%%%%%%%%%%%%%%%%%%
 dielectric build on homogeneous background
 environment bulk permitt.  =    100.0000000 
 dielectric flags
 need gradient              =  F 
 need factor depend. sqrt   =  T 
 need gradient of logarithm =  T 

%%%% COMPUTE ELECTROSTATIC POTENTIAL %%%%%%%%%%%%%%%%%%%%%%%%%%%%%%%%%%%%%%%%%%%
 Warning: bad guess with residual norm =   0.885157E+06, reset to no guess
 Iteration #          1
  pAp =  1277.604430567786  rzold =  1275.7804200375406  alpha =  0.9985723198146433
 delta_qm =   0.165633E+00 delta_en =   0.185180E+05 tol =   0.100000E-03
 Iteration #          2
  pAp =  1078.3892488092947  rzold =  40.37609198527468  alpha =  0.037441111388912686
 delta_qm =   0.661307E-01 delta_en =   0.295196E+04 tol =   0.100000E-03
 Iteration #          3
  pAp =  70.34377046852751  rzold =  3.2553015834568546  alpha =  0.046277041474671994
 delta_qm =   0.413525E-01 delta_en =   0.115427E+04 tol =   0.100000E-03
 Iteration #          4
  pAp =  2.0918104175112053  rzold =  0.32978645359124037  alpha =  0.15765599541454325
 delta_qm =   0.272719E-01 delta_en =   0.502036E+03 tol =   0.100000E-03
 Iteration #          5
  pAp =  0.08341153439704947  rzold =  0.03468897665526096  alpha =  0.41587745515071134
 delta_qm =   0.184613E-01 delta_en =   0.230052E+03 tol =   0.100000E-03
 Iteration #          6
  pAp =  0.032157665026076636  rzold =  0.019943174655372715  alpha =  0.6201686173172338
 delta_qm =   0.126346E-01 delta_en =   0.107752E+03 tol =   0.100000E-03
 Iteration #          7
  pAp =  0.04285136690959361  rzold =  0.022432153903384898  alpha =  0.5234874759237321
 delta_qm =   0.145603E-01 delta_en =   0.143102E+03 tol =   0.100000E-03
 Iteration #          8
  pAp =  0.026788747495882177  rzold =  0.01845015211338535  alpha =  0.6887276874822688
 delta_qm =   0.132827E-01 delta_en =   0.119090E+03 tol =   0.100000E-03
 Iteration #          9
  pAp =  0.010076441531164484  rzold =  0.007488495973109312  alpha =  0.7431687019617831
 delta_qm =   0.932740E-02 delta_en =   0.587252E+02 tol =   0.100000E-03
 Iteration #         10
  pAp =  0.015231346599726466  rzold =  0.008130927962656399  alpha =  0.533828569222003
 delta_qm =   0.832334E-02 delta_en =   0.467626E+02 tol =   0.100000E-03
 Iteration #         11
  pAp =  0.00946022743345615  rzold =  0.007314903419032862  alpha =  0.7732270149408527
 delta_qm =   0.893283E-02 delta_en =   0.538619E+02 tol =   0.100000E-03
 Iteration #         12
  pAp =  0.007246539595077441  rzold =  0.005118545435771976  alpha =  0.7063434027530869
 delta_qm =   0.701304E-02 delta_en =   0.331984E+02 tol =   0.100000E-03
 Iteration #         13
  pAp =  0.0041529109233657815  rzold =  0.002451902505447921  alpha =  0.590405754106747
 delta_qm =   0.536473E-02 delta_en =   0.194267E+02 tol =   0.100000E-03
 Iteration #         14
  pAp =  0.14335368340470483  rzold =  0.0063452632018032975  alpha =  0.044262993814325996
 delta_qm =   0.410807E-02 delta_en =   0.113915E+02 tol =   0.100000E-03
 Iteration #         15
  pAp =  0.0032332720149991544  rzold =  0.0020390834892440196  alpha =  0.6306563381567365
 delta_qm =   0.399680E-02 delta_en =   0.107827E+02 tol =   0.100000E-03
 Iteration #         16
  pAp =  0.0014488958671986054  rzold =  0.0010589753007638277  alpha =  0.7308843407851823
 delta_qm =   0.416557E-02 delta_en =   0.117126E+02 tol =   0.100000E-03
 Iteration #         17
  pAp =  0.004866941608918734  rzold =  0.0011334604909828971  alpha =  0.23288968351414285
 delta_qm =   0.407634E-02 delta_en =   0.112162E+02 tol =   0.100000E-03
 Iteration #         18
  pAp =  0.012804981876141165  rzold =  0.0030896474109838546  alpha =  0.24128479375208087
 delta_qm =   0.399512E-02 delta_en =   0.107736E+02 tol =   0.100000E-03
 Iteration #         19
  pAp =  0.0009461163664718238  rzold =  0.0010327121534939334  alpha =  1.091527628197613
 delta_qm =   0.470617E-02 delta_en =   0.149499E+02 tol =   0.100000E-03
 Iteration #         20
  pAp =  0.0018572248819887778  rzold =  0.0014209982619808488  alpha =  0.7651191171093922
 delta_qm =   0.425206E-02 delta_en =   0.122040E+02 tol =   0.100000E-03
 Iteration #         21
  pAp =  0.0009788298550855847  rzold =  0.0007816524571626496  alpha =  0.7985580467345934
 delta_qm =   0.245680E-02 delta_en =   0.407420E+01 tol =   0.100000E-03
 Iteration #         22
  pAp =  0.0005221098983800857  rzold =  0.0004005048746563092  alpha =  0.7670892199112256
 delta_qm =   0.149682E-02 delta_en =   0.151231E+01 tol =   0.100000E-03
 Iteration #         23
  pAp =  0.00018988354379669088  rzold =  0.00013399984671666907  alpha =  0.7056948908650204
 delta_qm =   0.101035E-02 delta_en =   0.689051E+00 tol =   0.100000E-03
 Iteration #         24
  pAp =  0.00008494614668852469  rzold =  0.000044922522277927464  alpha =  0.5288353154222123
 delta_qm =   0.550626E-03 delta_en =   0.204653E+00 tol =   0.100000E-03
 Iteration #         25
  pAp =  0.003008693685676948  rzold =  0.00011661422634927166  alpha =  0.03875908900411501
 delta_qm =   0.497269E-03 delta_en =   0.166912E+00 tol =   0.100000E-03
 Iteration #         26
  pAp =  0.00002011147692174386  rzold =  0.000014286476590327966  alpha =  0.7103643678640977
 delta_qm =   0.260714E-03 delta_en =   0.458809E-01 tol =   0.100000E-03
 Iteration #         27
  pAp =  0.0000064652052519785865  rzold =  0.000004692476916132342  alpha =  0.7258047862743839
 delta_qm =   0.187528E-03 delta_en =   0.237376E-01 tol =   0.100000E-03
 Iteration #         28
  pAp =  0.000002544699720351048  rzold =  0.0000016373444632093042  alpha =  0.6434332703834417
 delta_qm =   0.112869E-03 delta_en =   0.859909E-02 tol =   0.100000E-03
 Iteration #         29
  pAp =  0.0000010653913138691826  rzold =  6.606277327074416E-7  alpha =  0.6200798937511882
 delta_qm =   0.736750E-04 delta_en =   0.366390E-02 tol =   0.100000E-03
 Iteration #         30
  pAp =  0.000013870386382969235  rzold =  0.0000010348333909996613  alpha =  0.0746073946627963
 delta_qm =   0.640217E-04 delta_en =   0.276668E-02 tol =   0.100000E-03
 Iteration #         31
  pAp =  5.584160840337939E-7  rzold =  2.930089388475295E-7  alpha =  0.5247143612536013
 delta_qm =   0.414167E-04 delta_en =   0.115786E-02 tol =   0.100000E-03
 Iteration #         32
  pAp =  1.5547305489615119E-7  rzold =  9.043636850608908E-8  alpha =  0.5816851580262342
 delta_qm =   0.239578E-04 delta_en =   0.387434E-03 tol =   0.100000E-03
 Iteration #         33
  pAp =  1.2369479406768197E-7  rzold =  4.096309603762665E-8  alpha =  0.3311626519642606
 delta_qm =   0.176600E-04 delta_en =   0.210517E-03 tol =   0.100000E-03
 Iteration #         34
  pAp =  6.414350819610207E-8  rzold =  2.518800203951073E-8  alpha =  0.3926820148736638
 delta_qm =   0.996308E-05 delta_en =   0.670025E-04 tol =   0.100000E-03
 Charges are converged, exit!

%%%% ELECTRONS %%%%%%%%%%%%%%%%%%%%%%%%%%%%%%%%%%%%%%%%%%%%%%%%%%%%%%%%%%%%%%%%%
 number of electrons        =         90
 total electronic charge    =     90.0000000
 number of spin components  =  1

%%%% BOUNDARY %%%%%%%%%%%%%%%%%%%%%%%%%%%%%%%%%%%%%%%%%%%%%%%%%%%%%%%%%%%%%%%%%%
 boundary mode              = electronic           
 boundary is built as a function of a smooth density
 function type              =  2 
 using the modified SCCS function with parameters 
 rhomax                     =      0.0050000 
 rhomin                     =      0.0001000 

%%%% DIELECTRIC %%%%%%%%%%%%%%%%%%%%%%%%%%%%%%%%%%%%%%%%%%%%%%%%%%%%%%%%%%%%%%%%%
 dielectric build on homogeneous background
 environment bulk permitt.  =    100.0000000 
 dielectric flags
 need gradient              =  F 
 need factor depend. sqrt   =  T 
 need gradient of logarithm =  T 

%%%% COMPUTE ELECTROSTATIC POTENTIAL %%%%%%%%%%%%%%%%%%%%%%%%%%%%%%%%%%%%%%%%%%%
 Warning: bad guess with residual norm =   0.173916E+06, reset to no guess
 Iteration #          1
  pAp =  1272.6553976309845  rzold =  1272.0584656000683  alpha =  0.9995309554872219
 delta_qm =   0.641155E-01 delta_en =   0.277479E+04 tol =   0.100000E-03
 Iteration #          2
  pAp =  182.70899531596493  rzold =  9.17726150152364  alpha =  0.05022884333446795
 delta_qm =   0.317360E-01 delta_en =   0.679843E+03 tol =   0.100000E-03
 Iteration #          3
  pAp =  22.850492580827005  rzold =  1.1003306509658302  alpha =  0.048153476213859674
 delta_qm =   0.241193E-01 delta_en =   0.392674E+03 tol =   0.100000E-03
 Iteration #          4
  pAp =  2.4049485876200736  rzold =  0.2930356576707751  alpha =  0.12184695306137995
 delta_qm =   0.177658E-01 delta_en =   0.213047E+03 tol =   0.100000E-03
 Iteration #          5
  pAp =  0.05108416597504135  rzold =  0.02553061180405392  alpha =  0.49977544541938185
 delta_qm =   0.113660E-01 delta_en =   0.872002E+02 tol =   0.100000E-03
 Iteration #          6
  pAp =  0.029535259872458548  rzold =  0.018553852030990536  alpha =  0.6281932886695841
 delta_qm =   0.830002E-02 delta_en =   0.465010E+02 tol =   0.100000E-03
 Iteration #          7
  pAp =  0.0425799016119564  rzold =  0.020793503234194946  alpha =  0.48834080040138345
 delta_qm =   0.916068E-02 delta_en =   0.566447E+02 tol =   0.100000E-03
 Iteration #          8
  pAp =  0.022223683921889403  rzold =  0.01339422234662444  alpha =  0.6027003620867596
 delta_qm =   0.775743E-02 delta_en =   0.406200E+02 tol =   0.100000E-03
 Iteration #          9
  pAp =  0.006895501320322815  rzold =  0.004221265275894684  alpha =  0.6121767047529278
 delta_qm =   0.509580E-02 delta_en =   0.175279E+02 tol =   0.100000E-03
 Iteration #         10
  pAp =  0.008275600476015695  rzold =  0.003967771267640305  alpha =  0.4794541833114927
 delta_qm =   0.357841E-02 delta_en =   0.864341E+01 tol =   0.100000E-03
 Iteration #         11
  pAp =  0.0037685674570428185  rzold =  0.0023348928833866922  alpha =  0.619570409711831
 delta_qm =   0.311196E-02 delta_en =   0.653689E+01 tol =   0.100000E-03
 Iteration #         12
  pAp =  0.0018916257535171648  rzold =  0.0011267176533071221  alpha =  0.5956345493881003
 delta_qm =   0.204906E-02 delta_en =   0.283410E+01 tol =   0.100000E-03
 Iteration #         13
  pAp =  0.0005761928580519431  rzold =  0.00031584146193549406  alpha =  0.5481523374019699
 delta_qm =   0.109417E-02 delta_en =   0.808122E+00 tol =   0.100000E-03
 Iteration #         14
  pAp =  0.0010844925809844158  rzold =  0.0001478932356964182  alpha =  0.13637090588685497
 delta_qm =   0.869008E-03 delta_en =   0.509743E+00 tol =   0.100000E-03
 Iteration #         15
  pAp =  0.0025870683458289563  rzold =  0.0004112171307750761  alpha =  0.15895101164917724
 delta_qm =   0.539127E-03 delta_en =   0.196194E+00 tol =   0.100000E-03
 Iteration #         16
  pAp =  0.00006521484113397446  rzold =  0.00004242861464265123  alpha =  0.6505975312504063
 delta_qm =   0.447267E-03 delta_en =   0.135032E+00 tol =   0.100000E-03
 Iteration #         17
  pAp =  0.0000724549635602345  rzold =  0.000022723611927567834  alpha =  0.31362395081017264
 delta_qm =   0.438433E-03 delta_en =   0.129751E+00 tol =   0.100000E-03
 Iteration #         18
  pAp =  0.0004208219969198356  rzold =  0.00006770432433518149  alpha =  0.16088589672292916
 delta_qm =   0.343473E-03 delta_en =   0.796323E-01 tol =   0.100000E-03
 Iteration #         19
  pAp =  0.00001825664562260778  rzold =  0.000015856848775861144  alpha =  0.8685521482777268
 delta_qm =   0.395733E-03 delta_en =   0.105708E+00 tol =   0.100000E-03
 Iteration #         20
  pAp =  0.000021050379002452225  rzold =  0.000022391411578890062  alpha =  1.0637058637415324
 delta_qm =   0.585296E-03 delta_en =   0.231235E+00 tol =   0.100000E-03
 Iteration #         21
  pAp =  0.00002522322855337484  rzold =  0.000024734047740922043  alpha =  0.9806059398217939
 delta_qm =   0.501144E-03 delta_en =   0.169523E+00 tol =   0.100000E-03
 Iteration #         22
  pAp =  0.00002760054862241041  rzold =  0.00002372707266435364  alpha =  0.8596594578228174
 delta_qm =   0.306088E-03 delta_en =   0.632407E-01 tol =   0.100000E-03
 Iteration #         23
  pAp =  0.000019047358060468457  rzold =  0.000012566502007185233  alpha =  0.6597503951619508
 delta_qm =   0.200686E-03 delta_en =   0.271854E-01 tol =   0.100000E-03
 Iteration #         24
  pAp =  0.000005216852242959107  rzold =  0.0000034077364417835245  alpha =  0.6532169751180428
 delta_qm =   0.102426E-03 delta_en =   0.708147E-02 tol =   0.100000E-03
 Iteration #         25
  pAp =  0.000002270494117246653  rzold =  6.955201752225073E-7  alpha =  0.3063298732814775
 delta_qm =   0.777292E-04 delta_en =   0.407823E-02 tol =   0.100000E-03
 Iteration #         26
  pAp =  0.00005022280567115646  rzold =  0.0000033980452638083548  alpha =  0.06765940728317159
 delta_qm =   0.432992E-04 delta_en =   0.126550E-02 tol =   0.100000E-03
 Iteration #         27
  pAp =  2.837534975461975E-7  rzold =  1.7759798734144854E-7  alpha =  0.6258882758353809
 delta_qm =   0.211809E-04 delta_en =   0.302825E-03 tol =   0.100000E-03
 Iteration #         28
  pAp =  1.037606367125626E-7  rzold =  5.9084262678237815E-8  alpha =  0.5694284899379797
 delta_qm =   0.149648E-04 delta_en =   0.151163E-03 tol =   0.100000E-03
 Iteration #         29
  pAp =  2.1990855434629293E-8  rzold =  1.5800517087591762E-8  alpha =  0.7185039770081193
 delta_qm =   0.783464E-05 delta_en =   0.414326E-04 tol =   0.100000E-03
 Charges are converged, exit!

%%%% ELECTRONS %%%%%%%%%%%%%%%%%%%%%%%%%%%%%%%%%%%%%%%%%%%%%%%%%%%%%%%%%%%%%%%%%
 number of electrons        =         90
 total electronic charge    =     90.0000000
 number of spin components  =  1

%%%% BOUNDARY %%%%%%%%%%%%%%%%%%%%%%%%%%%%%%%%%%%%%%%%%%%%%%%%%%%%%%%%%%%%%%%%%%
 boundary mode              = electronic           
 boundary is built as a function of a smooth density
 function type              =  2 
 using the modified SCCS function with parameters 
 rhomax                     =      0.0050000 
 rhomin                     =      0.0001000 

%%%% DIELECTRIC %%%%%%%%%%%%%%%%%%%%%%%%%%%%%%%%%%%%%%%%%%%%%%%%%%%%%%%%%%%%%%%%%
 dielectric build on homogeneous background
 environment bulk permitt.  =    100.0000000 
 dielectric flags
 need gradient              =  F 
 need factor depend. sqrt   =  T 
 need gradient of logarithm =  T 

%%%% COMPUTE ELECTROSTATIC POTENTIAL %%%%%%%%%%%%%%%%%%%%%%%%%%%%%%%%%%%%%%%%%%%
 Warning: bad guess with residual norm =   0.233418E+06, reset to no guess
 Iteration #          1
  pAp =  1269.6137333438262  rzold =  1269.0182000852417  alpha =  0.9995309335091894
 delta_qm =   0.765929E-01 delta_en =   0.395987E+04 tol =   0.100000E-03
 Iteration #          2
  pAp =  197.10702153816902  rzold =  9.511426479663362  alpha =  0.048255137769516294
 delta_qm =   0.349956E-01 delta_en =   0.826668E+03 tol =   0.100000E-03
 Iteration #          3
  pAp =  18.858392124786977  rzold =  0.9720181273206016  alpha =  0.05154300116832369
 delta_qm =   0.259895E-01 delta_en =   0.455931E+03 tol =   0.100000E-03
 Iteration #          4
  pAp =  4.271486025884401  rzold =  0.40637037176163354  alpha =  0.09513559667504602
 delta_qm =   0.199067E-01 delta_en =   0.267488E+03 tol =   0.100000E-03
 Iteration #          5
  pAp =  0.06465235645506764  rzold =  0.028435979160923167  alpha =  0.4398289671109779
 delta_qm =   0.135984E-01 delta_en =   0.124818E+03 tol =   0.100000E-03
 Iteration #          6
  pAp =  0.032863913711073396  rzold =  0.019648713075919935  alpha =  0.5978811059651535
 delta_qm =   0.978476E-02 delta_en =   0.646255E+02 tol =   0.100000E-03
 Iteration #          7
  pAp =  0.042975718472568064  rzold =  0.02249341628856953  alpha =  0.523398260413665
 delta_qm =   0.104859E-01 delta_en =   0.742185E+02 tol =   0.100000E-03
 Iteration #          8
  pAp =  0.02859647289879207  rzold =  0.01761831574063836  alpha =  0.616101006686827
 delta_qm =   0.995745E-02 delta_en =   0.669268E+02 tol =   0.100000E-03
 Iteration #          9
  pAp =  0.009121724105488506  rzold =  0.006409691774619523  alpha =  0.7026842404456013
 delta_qm =   0.690521E-02 delta_en =   0.321853E+02 tol =   0.100000E-03
 Iteration #         10
  pAp =  0.01311748530711909  rzold =  0.006149702993500133  alpha =  0.46881721987998576
 delta_qm =   0.528079E-02 delta_en =   0.188235E+02 tol =   0.100000E-03
 Iteration #         11
  pAp =  0.007136537825420216  rzold =  0.004523932077004836  alpha =  0.633911314936309
 delta_qm =   0.460007E-02 delta_en =   0.142834E+02 tol =   0.100000E-03
 Iteration #         12
  pAp =  0.0037625282866787357  rzold =  0.002340601572499817  alpha =  0.6220821198306302
 delta_qm =   0.334606E-02 delta_en =   0.755736E+01 tol =   0.100000E-03
 Iteration #         13
  pAp =  0.001439732550465053  rzold =  0.0007630818159180179  alpha =  0.5300163670478466
 delta_qm =   0.190247E-02 delta_en =   0.244309E+01 tol =   0.100000E-03
 Iteration #         14
  pAp =  0.013946203356948364  rzold =  0.0007505112839901741  alpha =  0.05381473830411699
 delta_qm =   0.161683E-02 delta_en =   0.176454E+01 tol =   0.100000E-03
 Iteration #         15
  pAp =  0.0015313222624993867  rzold =  0.0005545596181588302  alpha =  0.3621442930331931
 delta_qm =   0.990606E-03 delta_en =   0.662377E+00 tol =   0.100000E-03
 Iteration #         16
  pAp =  0.0002213845185723132  rzold =  0.00013719377795993492  alpha =  0.6197080936132481
 delta_qm =   0.847108E-03 delta_en =   0.484375E+00 tol =   0.100000E-03
 Iteration #         17
  pAp =  0.00037198032650530516  rzold =  0.00009474643989075338  alpha =  0.25470820132043226
 delta_qm =   0.938517E-03 delta_en =   0.594550E+00 tol =   0.100000E-03
 Iteration #         18
  pAp =  0.001649009288128822  rzold =  0.0002596826827240485  alpha =  0.1574779988163183
 delta_qm =   0.754419E-03 delta_en =   0.384175E+00 tol =   0.100000E-03
 Iteration #         19
  pAp =  0.000054852529226572236  rzold =  0.0000563389677630357  alpha =  1.0270988149028393
 delta_qm =   0.754804E-03 delta_en =   0.384568E+00 tol =   0.100000E-03
 Iteration #         20
  pAp =  0.00009855766201065354  rzold =  0.00009636933147717825  alpha =  0.9777964443470794
 delta_qm =   0.119133E-02 delta_en =   0.958007E+00 tol =   0.100000E-03
 Iteration #         21
  pAp =  0.00010145102909964467  rzold =  0.00010310596681610964  alpha =  1.0163126754962684
 delta_qm =   0.113691E-02 delta_en =   0.872481E+00 tol =   0.100000E-03
 Iteration #         22
  pAp =  0.0001102259703493038  rzold =  0.00010422243194069567  alpha =  0.9455342657489606
 delta_qm =   0.726960E-03 delta_en =   0.356718E+00 tol =   0.100000E-03
 Iteration #         23
  pAp =  0.00007906104290484066  rzold =  0.00006232668259407953  alpha =  0.7883362058491573
 delta_qm =   0.539884E-03 delta_en =   0.196746E+00 tol =   0.100000E-03
 Iteration #         24
  pAp =  0.0000476903337991003  rzold =  0.000027389347114971828  alpha =  0.5743165319486303
 delta_qm =   0.335884E-03 delta_en =   0.761522E-01 tol =   0.100000E-03
 Iteration #         25
  pAp =  0.00008777723777482776  rzold =  0.000009778040278685074  alpha =  0.11139608088110928
 delta_qm =   0.305863E-03 delta_en =   0.631477E-01 tol =   0.100000E-03
 Iteration #         26
  pAp =  0.00012841158929765157  rzold =  0.00002327791745625142  alpha =  0.18127583019235424
 delta_qm =   0.154141E-03 delta_en =   0.160375E-01 tol =   0.100000E-03
 Iteration #         27
  pAp =  0.0000033159780405317093  rzold =  0.000002231277406020547  alpha =  0.6728866653359281
 delta_qm =   0.835416E-04 delta_en =   0.471095E-02 tol =   0.100000E-03
 Iteration #         28
  pAp =  0.0000015133579474748998  rzold =  8.084343622074043E-7  alpha =  0.534199039662963
 delta_qm =   0.565805E-04 delta_en =   0.216091E-02 tol =   0.100000E-03
 Iteration #         29
  pAp =  4.1620889537414235E-7  rzold =  2.3841163136460834E-7  alpha =  0.5728172415687875
 delta_qm =   0.306385E-04 delta_en =   0.633634E-03 tol =   0.100000E-03
 Iteration #         30
  pAp =  4.519127577004667E-7  rzold =  9.528928947224541E-8  alpha =  0.21085771058360853
 delta_qm =   0.247766E-04 delta_en =   0.414368E-03 tol =   0.100000E-03
 Iteration #         31
  pAp =  0.000001357790595010678  rzold =  1.9164776498247284E-7  alpha =  0.14114677601001183
 delta_qm =   0.154639E-04 delta_en =   0.161414E-03 tol =   0.100000E-03
 Iteration #         32
  pAp =  1.4435520595941008E-7  rzold =  4.0180031401204865E-8  alpha =  0.2783414088474421
 delta_qm =   0.113684E-04 delta_en =   0.872370E-04 tol =   0.100000E-03
 Charges are converged, exit!

%%%% ELECTRONS %%%%%%%%%%%%%%%%%%%%%%%%%%%%%%%%%%%%%%%%%%%%%%%%%%%%%%%%%%%%%%%%%
 number of electrons        =         90
 total electronic charge    =     90.0000000
 number of spin components  =  1

%%%% BOUNDARY %%%%%%%%%%%%%%%%%%%%%%%%%%%%%%%%%%%%%%%%%%%%%%%%%%%%%%%%%%%%%%%%%%
 boundary mode              = electronic           
 boundary is built as a function of a smooth density
 function type              =  2 
 using the modified SCCS function with parameters 
 rhomax                     =      0.0050000 
 rhomin                     =      0.0001000 

%%%% DIELECTRIC %%%%%%%%%%%%%%%%%%%%%%%%%%%%%%%%%%%%%%%%%%%%%%%%%%%%%%%%%%%%%%%%%
 dielectric build on homogeneous background
 environment bulk permitt.  =    100.0000000 
 dielectric flags
 need gradient              =  F 
 need factor depend. sqrt   =  T 
 need gradient of logarithm =  T 

%%%% COMPUTE ELECTROSTATIC POTENTIAL %%%%%%%%%%%%%%%%%%%%%%%%%%%%%%%%%%%%%%%%%%%
 Warning: bad guess with residual norm =   0.128694E+06, reset to no guess
 Iteration #          1
  pAp =  1268.9122401345362  rzold =  1268.4360047159798  alpha =  0.999624690027022
 delta_qm =   0.451246E-01 delta_en =   0.137446E+04 tol =   0.100000E-03
 Iteration #          2
  pAp =  128.13686281446786  rzold =  6.866154166672163  alpha =  0.05358453465973969
 delta_qm =   0.219232E-01 delta_en =   0.324424E+03 tol =   0.100000E-03
 Iteration #          3
  pAp =  6.356678804389901  rzold =  0.5503618279598567  alpha =  0.0865800907825921
 delta_qm =   0.154886E-01 delta_en =   0.161931E+03 tol =   0.100000E-03
 Iteration #          4
  pAp =  8.926314057118292  rzold =  0.43538907756648787  alpha =  0.04877590848590933
 delta_qm =   0.137485E-01 delta_en =   0.127590E+03 tol =   0.100000E-03
 Iteration #          5
  pAp =  0.0669129537160752  rzold =  0.027781675390029324  alpha =  0.41519128729412286
 delta_qm =   0.947375E-02 delta_en =   0.605826E+02 tol =   0.100000E-03
 Iteration #          6
  pAp =  0.03295662268777547  rzold =  0.01877500335689186  alpha =  0.5696883304688872
 delta_qm =   0.688636E-02 delta_en =   0.320098E+02 tol =   0.100000E-03
 Iteration #          7
  pAp =  0.039638871601468104  rzold =  0.02078726708673278  alpha =  0.5244162168824927
 delta_qm =   0.678523E-02 delta_en =   0.310766E+02 tol =   0.100000E-03
 Iteration #          8
  pAp =  0.025735058199312072  rzold =  0.015106296822871835  alpha =  0.5869929147187879
 delta_qm =   0.646590E-02 delta_en =   0.282203E+02 tol =   0.100000E-03
 Iteration #          9
  pAp =  0.007821073382416272  rzold =  0.0047093291520954855  alpha =  0.6021333545703886
 delta_qm =   0.449635E-02 delta_en =   0.136466E+02 tol =   0.100000E-03
 Iteration #         10
  pAp =  0.009982944536946464  rzold =  0.004474255052381721  alpha =  0.4481899138899038
 delta_qm =   0.296781E-02 delta_en =   0.594531E+01 tol =   0.100000E-03
 Iteration #         11
  pAp =  0.0038780655094276103  rzold =  0.0024517999209541577  alpha =  0.6322224095992734
 delta_qm =   0.242862E-02 delta_en =   0.398128E+01 tol =   0.100000E-03
 Iteration #         12
  pAp =  0.002136354665911551  rzold =  0.0012552959529361734  alpha =  0.5875878069152703
 delta_qm =   0.184876E-02 delta_en =   0.230708E+01 tol =   0.100000E-03
 Iteration #         13
  pAp =  0.0005505155358529206  rzold =  0.0003166986493811599  alpha =  0.5752764976750288
 delta_qm =   0.957791E-03 delta_en =   0.619220E+00 tol =   0.100000E-03
 Iteration #         14
  pAp =  0.00025929633885535643  rzold =  0.00012980220447270083  alpha =  0.5005940502118256
 delta_qm =   0.436921E-03 delta_en =   0.128857E+00 tol =   0.100000E-03
 Iteration #         15
  pAp =  0.008796750346955763  rzold =  0.00032842858322992076  alpha =  0.037335217014948935
 delta_qm =   0.403591E-03 delta_en =   0.109948E+00 tol =   0.100000E-03
 Iteration #         16
  pAp =  0.00009128517548132839  rzold =  0.000046285412232633826  alpha =  0.5070419374074722
 delta_qm =   0.308879E-03 delta_en =   0.643992E-01 tol =   0.100000E-03
 Iteration #         17
  pAp =  0.00011399711263441079  rzold =  0.0000216626402462785  alpha =  0.19002797303955124
 delta_qm =   0.297076E-03 delta_en =   0.595715E-01 tol =   0.100000E-03
 Iteration #         18
  pAp =  0.0002558996135875641  rzold =  0.00004168132999080419  alpha =  0.1628815667458662
 delta_qm =   0.222131E-03 delta_en =   0.333059E-01 tol =   0.100000E-03
 Iteration #         19
  pAp =  0.000006344758223627752  rzold =  0.000005317582404843589  alpha =  0.8381063891514445
 delta_qm =   0.136410E-03 delta_en =   0.125602E-01 tol =   0.100000E-03
 Iteration #         20
  pAp =  0.000005850976642543234  rzold =  0.000004808563029954647  alpha =  0.82183938233336
 delta_qm =   0.180057E-03 delta_en =   0.218838E-01 tol =   0.100000E-03
 Iteration #         21
  pAp =  0.000005729152472752293  rzold =  0.0000047524427108892175  alpha =  0.8295193282936206
 delta_qm =   0.208100E-03 delta_en =   0.292313E-01 tol =   0.100000E-03
 Iteration #         22
  pAp =  0.0000064031976400072395  rzold =  0.000005893594015545751  alpha =  0.9204141972321016
 delta_qm =   0.181675E-03 delta_en =   0.222789E-01 tol =   0.100000E-03
 Iteration #         23
  pAp =  0.000006956032180849219  rzold =  0.000005988234296854931  alpha =  0.8608692629889277
 delta_qm =   0.152771E-03 delta_en =   0.157539E-01 tol =   0.100000E-03
 Iteration #         24
  pAp =  0.000006448691089334149  rzold =  0.000004258699224845761  alpha =  0.6603974614149934
 delta_qm =   0.118277E-03 delta_en =   0.944290E-02 tol =   0.100000E-03
 Iteration #         25
  pAp =  0.0000022438095577075815  rzold =  0.0000014331849303371656  alpha =  0.6387284185567862
 delta_qm =   0.611376E-04 delta_en =   0.252302E-02 tol =   0.100000E-03
 Iteration #         26
  pAp =  0.000033176606291475164  rzold =  0.0000013937878621628689  alpha =  0.04201116443067316
 delta_qm =   0.564915E-04 delta_en =   0.215412E-02 tol =   0.100000E-03
 Iteration #         27
  pAp =  0.0000012538909043651462  rzold =  5.838753303115262E-7  alpha =  0.465650821996469
 delta_qm =   0.280030E-04 delta_en =   0.529315E-03 tol =   0.100000E-03
 Iteration #         28
  pAp =  2.9777417292241247E-7  rzold =  1.8493915552732443E-7  alpha =  0.6210718468707219
 delta_qm =   0.229964E-04 delta_en =   0.356964E-03 tol =   0.100000E-03
 Iteration #         29
  pAp =  1.2174318105444776E-7  rzold =  6.707913548830874E-8  alpha =  0.5509888513452645
 delta_qm =   0.153999E-04 delta_en =   0.160081E-03 tol =   0.100000E-03
 Iteration #         30
  pAp =  3.5511604390840997E-7  rzold =  4.4951773438738445E-8  alpha =  0.12658333581327072
 delta_qm =   0.131311E-04 delta_en =   0.116387E-03 tol =   0.100000E-03
 Iteration #         31
  pAp =  2.667355289729792E-7  rzold =  4.2613839913910306E-8  alpha =  0.15976064410312268
 delta_qm =   0.947963E-05 delta_en =   0.606578E-04 tol =   0.100000E-03
 Charges are converged, exit!

%%%% ELECTRONS %%%%%%%%%%%%%%%%%%%%%%%%%%%%%%%%%%%%%%%%%%%%%%%%%%%%%%%%%%%%%%%%%
 number of electrons        =         90
 total electronic charge    =     90.0000000
 number of spin components  =  1

%%%% BOUNDARY %%%%%%%%%%%%%%%%%%%%%%%%%%%%%%%%%%%%%%%%%%%%%%%%%%%%%%%%%%%%%%%%%%
 boundary mode              = electronic           
 boundary is built as a function of a smooth density
 function type              =  2 
 using the modified SCCS function with parameters 
 rhomax                     =      0.0050000 
 rhomin                     =      0.0001000 

%%%% DIELECTRIC %%%%%%%%%%%%%%%%%%%%%%%%%%%%%%%%%%%%%%%%%%%%%%%%%%%%%%%%%%%%%%%%%
 dielectric build on homogeneous background
 environment bulk permitt.  =    100.0000000 
 dielectric flags
 need gradient              =  F 
 need factor depend. sqrt   =  T 
 need gradient of logarithm =  T 

%%%% COMPUTE ELECTROSTATIC POTENTIAL %%%%%%%%%%%%%%%%%%%%%%%%%%%%%%%%%%%%%%%%%%%
 Warning: bad guess with residual norm =   0.124091E+06, reset to no guess
 Iteration #          1
  pAp =  1269.084109597413  rzold =  1268.535063171443  alpha =  0.999567367976781
 delta_qm =   0.427634E-01 delta_en =   0.123438E+04 tol =   0.100000E-03
 Iteration #          2
  pAp =  171.38343491178958  rzold =  8.432927732464156  alpha =  0.04920503394511
 delta_qm =   0.213096E-01 delta_en =   0.306517E+03 tol =   0.100000E-03
 Iteration #          3
  pAp =  6.269212343560757  rzold =  0.686319894551732  alpha =  0.10947466076127824
 delta_qm =   0.133748E-01 delta_en =   0.120748E+03 tol =   0.100000E-03
 Iteration #          4
  pAp =  9.844787807302351  rzold =  0.34194925841338886  alpha =  0.034734040500065295
 delta_qm =   0.128663E-01 delta_en =   0.111740E+03 tol =   0.100000E-03
 Iteration #          5
  pAp =  0.14343359218436935  rzold =  0.04165729289053201  alpha =  0.2904291265116318
 delta_qm =   0.924799E-02 delta_en =   0.577296E+02 tol =   0.100000E-03
 Iteration #          6
  pAp =  0.036925347923065316  rzold =  0.01936273956954474  alpha =  0.5243752776517472
 delta_qm =   0.681621E-02 delta_en =   0.313610E+02 tol =   0.100000E-03
 Iteration #          7
  pAp =  0.0361921011124478  rzold =  0.01991263682759018  alpha =  0.5501928933532265
 delta_qm =   0.585451E-02 delta_en =   0.231358E+02 tol =   0.100000E-03
 Iteration #          8
  pAp =  0.028780385639665933  rzold =  0.01676712497857403  alpha =  0.582588613943557
 delta_qm =   0.609580E-02 delta_en =   0.250821E+02 tol =   0.100000E-03
 Iteration #          9
  pAp =  0.009346185686907694  rzold =  0.00581159950385761  alpha =  0.6218151124472739
 delta_qm =   0.477517E-02 delta_en =   0.153915E+02 tol =   0.100000E-03
 Iteration #         10
  pAp =  0.011869173285626802  rzold =  0.005450048963865299  alpha =  0.4591767962866578
 delta_qm =   0.343091E-02 delta_en =   0.794551E+01 tol =   0.100000E-03
 Iteration #         11
  pAp =  0.005393564574634586  rzold =  0.0034123619109191388  alpha =  0.632672857383992
 delta_qm =   0.258559E-02 delta_en =   0.451255E+01 tol =   0.100000E-03
 Iteration #         12
  pAp =  0.004659422452115039  rzold =  0.0024356922449726296  alpha =  0.5227455269412205
 delta_qm =   0.226834E-02 delta_en =   0.347312E+01 tol =   0.100000E-03
 Iteration #         13
  pAp =  0.001091391321680216  rzold =  0.0006724663985257652  alpha =  0.6161551637505156
 delta_qm =   0.130646E-02 delta_en =   0.115211E+01 tol =   0.100000E-03
 Iteration #         14
  pAp =  0.000456720355779197  rzold =  0.0002649136874998282  alpha =  0.5800347721481931
 delta_qm =   0.657445E-03 delta_en =   0.291758E+00 tol =   0.100000E-03
 Iteration #         15
  pAp =  0.007561166481165255  rzold =  0.00032992039504760047  alpha =  0.04363353139617107
 delta_qm =   0.633734E-03 delta_en =   0.271092E+00 tol =   0.100000E-03
 Iteration #         16
  pAp =  0.000573370138034966  rzold =  0.0001826962633529397  alpha =  0.31863581870355145
 delta_qm =   0.438052E-03 delta_en =   0.129525E+00 tol =   0.100000E-03
 Iteration #         17
  pAp =  0.00011903875338411908  rzold =  0.00005933541350728028  alpha =  0.4984545941590497
 delta_qm =   0.364413E-03 delta_en =   0.896379E-01 tol =   0.100000E-03
 Iteration #         18
  pAp =  0.0006339480190188724  rzold =  0.00004585857012416  alpha =  0.07233806045349407
 delta_qm =   0.365834E-03 delta_en =   0.903381E-01 tol =   0.100000E-03
 Iteration #         19
  pAp =  0.00004502685778501987  rzold =  0.00002333201592077815  alpha =  0.5181799723217761
 delta_qm =   0.237981E-03 delta_en =   0.382286E-01 tol =   0.100000E-03
 Iteration #         20
  pAp =  0.00001725559429676949  rzold =  0.000014073453549433904  alpha =  0.8155878787709252
 delta_qm =   0.240053E-03 delta_en =   0.388971E-01 tol =   0.100000E-03
 Iteration #         21
  pAp =  0.000014662681598018634  rzold =  0.000013083579444029508  alpha =  0.8923046822347619
 delta_qm =   0.315648E-03 delta_en =   0.672526E-01 tol =   0.100000E-03
 Iteration #         22
  pAp =  0.00001614731083442495  rzold =  0.000014810244715457173  alpha =  0.9171957403509415
 delta_qm =   0.295810E-03 delta_en =   0.590648E-01 tol =   0.100000E-03
 Iteration #         23
  pAp =  0.000019071893706008748  rzold =  0.000016310363625735128  alpha =  0.855204201384387
 delta_qm =   0.241970E-03 delta_en =   0.395210E-01 tol =   0.100000E-03
 Iteration #         24
  pAp =  0.000025246011312135353  rzold =  0.000017034513426432933  alpha =  0.6747407824476699
 delta_qm =   0.239301E-03 delta_en =   0.386537E-01 tol =   0.100000E-03
 Iteration #         25
  pAp =  0.00001150600714445206  rzold =  0.000007461615534199983  alpha =  0.648497384064098
 delta_qm =   0.149126E-03 delta_en =   0.150111E-01 tol =   0.100000E-03
 Iteration #         26
  pAp =  0.000008699406900384473  rzold =  0.000003050419891873777  alpha =  0.35064688050618287
 delta_qm =   0.101556E-03 delta_en =   0.696163E-02 tol =   0.100000E-03
 Iteration #         27
  pAp =  0.00032038691459932  rzold =  0.000014218822185108775  alpha =  0.044380158917822904
 delta_qm =   0.758948E-04 delta_en =   0.388801E-02 tol =   0.100000E-03
 Iteration #         28
  pAp =  0.0000020451341978413315  rzold =  0.0000012553238113320803  alpha =  0.6138099947950079
 delta_qm =   0.508408E-04 delta_en =   0.174473E-02 tol =   0.100000E-03
 Iteration #         29
  pAp =  8.493187391374638E-7  rzold =  4.6096655661809464E-7  alpha =  0.5427485999970223
 delta_qm =   0.400461E-04 delta_en =   0.108249E-02 tol =   0.100000E-03
 Iteration #         30
  pAp =  0.0000011891526184518638  rzold =  2.935108767946825E-7  alpha =  0.24682355505956752
 delta_qm =   0.301680E-04 delta_en =   0.614322E-03 tol =   0.100000E-03
 Iteration #         31
  pAp =  3.91875292945882E-7  rzold =  1.5147778686604624E-7  alpha =  0.38654589761790703
 delta_qm =   0.165785E-04 delta_en =   0.185521E-03 tol =   0.100000E-03
 Iteration #         32
  pAp =  7.90927701800403E-7  rzold =  6.817035725675839E-8  alpha =  0.08619037758012645
 delta_qm =   0.143605E-04 delta_en =   0.139200E-03 tol =   0.100000E-03
 Iteration #         33
  pAp =  1.6053296363919642E-7  rzold =  5.229689700663519E-8  alpha =  0.32577045748793587
 delta_qm =   0.689639E-05 delta_en =   0.321031E-04 tol =   0.100000E-03
 Charges are converged, exit!

%%%% ELECTRONS %%%%%%%%%%%%%%%%%%%%%%%%%%%%%%%%%%%%%%%%%%%%%%%%%%%%%%%%%%%%%%%%%
 number of electrons        =         90
 total electronic charge    =     90.0000000
 number of spin components  =  1

%%%% BOUNDARY %%%%%%%%%%%%%%%%%%%%%%%%%%%%%%%%%%%%%%%%%%%%%%%%%%%%%%%%%%%%%%%%%%
 boundary mode              = electronic           
 boundary is built as a function of a smooth density
 function type              =  2 
 using the modified SCCS function with parameters 
 rhomax                     =      0.0050000 
 rhomin                     =      0.0001000 

%%%% DIELECTRIC %%%%%%%%%%%%%%%%%%%%%%%%%%%%%%%%%%%%%%%%%%%%%%%%%%%%%%%%%%%%%%%%%
 dielectric build on homogeneous background
 environment bulk permitt.  =    100.0000000 
 dielectric flags
 need gradient              =  F 
 need factor depend. sqrt   =  T 
 need gradient of logarithm =  T 
