
     Program CP v.7.0 starts on  3May2022 at  8:16: 2 

     This program is part of the open-source Quantum ESPRESSO suite
     for quantum simulation of materials; please cite
         "P. Giannozzi et al., J. Phys.:Condens. Matter 21 395502 (2009);
         "P. Giannozzi et al., J. Phys.:Condens. Matter 29 465901 (2017);
         "P. Giannozzi et al., J. Chem. Phys. 152 154105 (2020);
          URL http://www.quantum-espresso.org", 
     in publications or presentations arising from this work. More details at
     http://www.quantum-espresso.org/quote

     Parallel version (MPI), running on     1 processors

     MPI processes distributed on     1 nodes
     19174 MiB available memory on the printing compute node when the environment starts

     Waiting for input...
     Reading input from standard input
Warning: card K_POINTS (AUTOMATIC) ignored
Warning: card  1 1 1 0 0 0 ignored

   Job Title: MD Simulation


   Atomic Pseudopotentials Parameters
   ----------------------------------

   Reading pseudopotential for specie #  1 from file :
   file type is xml

   Reading pseudopotential for specie #  2 from file :
   file type is xml
     file H.pbe-rrkjus.UPF: wavefunction(s)  1S renormalized
     file O.pbe-rrkjus.UPF: wavefunction(s)  2S renormalized


   Main Simulation Parameters (from input)
   ---------------------------------------

     Reading input from environ.in:
     * setting up water environment
     * using electronic solvent mode
     * setting boundary derivatives method to SCCS default
     * ignoring &ELECTROSTATIC namelist
     
   Restart Mode       =      -1   from_scratch   
   Number of MD Steps =    2000
   Print out every           10 MD Steps
   Reads from unit    =      50
   Writes to unit     =      50
   MD Simulation time step            =       1.00
   Electronic fictitious mass (emass) =     400.00
   emass cut-off                      =       2.50

   Simulation Cell Parameters (from input)
   external pressure       =            0.00 [KBar]
   wmass (calculated)      =         2493.41 [AU]
   ibrav =    1
   alat  =    20.00000000
   a1    =    20.00000000    0.00000000    0.00000000
   a2    =     0.00000000   20.00000000    0.00000000
   a3    =     0.00000000    0.00000000   20.00000000

   b1    =     0.05000000    0.00000000    0.00000000
   b2    =     0.00000000    0.05000000    0.00000000
   b3    =     0.00000000    0.00000000    0.05000000
   omega =    8000.00000000

   Energy Cut-offs
   ---------------
   Ecutwfc =   30.0 Ry,      Ecutrho =  300.0 Ry,      Ecuts =  120.0 Ry
   Gcutwfc =   17.4     ,    Gcutrho =   55.1          Gcuts =   34.9
   NOTA BENE: refg, mmx =   0.050000  7200
   Eigenvalues calculated without the kinetic term contribution
   Orthog. with lagrange multipliers : eps =   0.10E-08,  max = 300
   verlet algorithm for electron dynamics
   with friction frice =  0.0500 , grease =  1.0000
   Electron dynamics : the temperature is not controlled
   initial random displacement of el. coordinates with  amplitude=  0.020000

   Electronic states
   -----------------
   Number of Electrons=     8, of States =     4
   Occupation numbers :
   2.00 2.00 2.00 2.00


   Exchange and correlations functionals
   -------------------------------------
     Exchange-correlation= SLA  PW   PBE  PBE
                           (   1   4   3   4   0   0   0)


   Ions Simulation Parameters
   --------------------------
   Ions are not allowed to move
   Ionic position (from input)
   sorted by specie, and converted to real a.u. coordinates
   Species   1 atoms =    2 mass =      1822.89 (a.u.),         1.00 (amu) rcmax =   0.50 (a.u.)
       13.450000    11.220000    11.500000
       10.560000    10.660000    11.500000
   Species   2 atoms =    1 mass =     29166.22 (a.u.),        16.00 (amu) rcmax =   0.50 (a.u.)
       11.790000    12.050000    11.500000
   Ionic position read from input file


   Cell Dynamics Parameters (from STDIN)
   -------------------------------------
   Starting cell generated from CELLDM
   Constant VOLUME Molecular dynamics
   cell parameters are not allowed to move

     ================================================================================

                                  Environ Setup Summary

     ================================================================================

     Please cite

          O. Andreussi, I. Dabo and N. Marzari, J. Chem. Phys. 136, 064102 (2012)

     in publications or presentations arising from this work.

     ================================================================================

     Parameters
     ==========

     compensation onset threshold      =               0.1000E+00
     static permittivity               =                    78.30
     surface tension in input (dyn/cm) =                    47.90
     surface tension in internal units =               0.6153E-04
     external pressure in input (GPa)  =                    -0.36
     external pressure in inter. units =              -0.2447E-04

     Solvent Boundary
     ================

     solvent mode                      =               electronic
     derivatives method                =                    chain
     numerical core for derivatives    =                      fft
     switching function adopted        =                     SCCS
     density limit for vacuum region   =               0.5000E-02
     density limit for bulk solvent    =               0.1000E-03

     Electrostatic Setup
     ===================

     electrostatic problem to solve    =              generalized
     numerical solver adopted          =                       cg
     type of auxiliary density adopted =                     none
     numerical core for poisson        =                      fft

     ================================================================================


   Verbosity: iverbosity =  0



   Simulation dimensions initialization
   ------------------------------------

   unit vectors of full simulation cell
   in real space:                         in reciprocal space (units 2pi/alat):
   1    20.0000    0.0000    0.0000              1.0000    0.0000    0.0000
   2     0.0000   20.0000    0.0000              0.0000    1.0000    0.0000
   3     0.0000    0.0000   20.0000              0.0000    0.0000    1.0000

     G-vector sticks info
     --------------------
     sticks:   dense  smooth     PW     G-vecs:    dense   smooth      PW
     Sum        9549    3809    949               701475   177509   22119

     Using Slab Decomposition


   Real Mesh
   ---------
   Global Dimensions   Local  Dimensions   Processor Grid
   .X.   .Y.   .Z.     .X.   .Y.   .Z.     .X.   .Y.   .Z.
   120   120   120     120   120   120       1     1     1
   Array leading dimensions ( nr1x, nr2x, nr3x )   =    120   120   120
   Local number of cell to store the grid ( nrxx ) =    1728000
   Number of x-y planes for each processors: 
  | 120, 120  |
   Using Slab Decomposition

   Smooth Real Mesh
   ----------------
   Global Dimensions   Local  Dimensions   Processor Grid
   .X.   .Y.   .Z.     .X.   .Y.   .Z.     .X.   .Y.   .Z.
    72    72    72      72    72    72       1     1     1
   Array leading dimensions ( nr1x, nr2x, nr3x )   =     72    72    72
   Local number of cell to store the grid ( nrxx ) =     373248
   Number of x-y planes for each processors: 
  |  72,  72  |
   Using Slab Decomposition

   Small Box Real Mesh
   -------------------
   Global Dimensions   Local  Dimensions   Processor Grid
   .X.   .Y.   .Z.     .X.   .Y.   .Z.     .X.   .Y.   .Z.
    24    24    24      24    24    24       1     1     1
   Array leading dimensions ( nr1x, nr2x, nr3x )   =     24    24    24
   Local number of cell to store the grid ( nrxx ) =      13824

   unit vectors of box grid cell
   in real space:                         in reciprocal space:
       4.0000    0.0000    0.0000              1.0000    0.0000    0.0000
       0.0000    4.0000    0.0000              0.0000    1.0000    0.0000
       0.0000    0.0000    4.0000              0.0000    0.0000    1.0000

   Reciprocal Space Mesh
   ---------------------
   Large Mesh
     Global(ngm_g)    MinLocal       MaxLocal      Average
         350738         350738         350738      350738.00
   Smooth Mesh
     Global(ngms_g)   MinLocal       MaxLocal      Average
          88755          88755          88755       88755.00
   Wave function Mesh
     Global(ngw_g)    MinLocal       MaxLocal      Average
          11060          11060          11060       11060.00

   Small box Mesh
   ngb =         2788 not distributed to processors


   System geometry initialization
   ------------------------------
   ibrav =    1       cell parameters read from input file

   unit vectors of box grid cell
   in real space:                         in reciprocal space:
       4.0000    0.0000    0.0000              1.0000    0.0000    0.0000
       0.0000    4.0000    0.0000              0.0000    1.0000    0.0000
       0.0000    0.0000    4.0000              0.0000    0.0000    1.0000
     Subspace diagonalization in iterative solution of the eigenvalue problem:
     a serial algorithm will be used


   Matrix Multiplication Performances
   ortho mmul, time for parallel driver      =   0.00000 with    1 procs

   Constraints matrixes will be distributed block like on
   ortho sub-group =    1*   1 procs



   Pseudopotentials initialization
   -------------------------------
is, nh(is), ngb, kkbeta, lmaxq =     1    2 2788  629    3

                        qqq 
   0.0186   0.0152
   0.0152   0.0125

is, nh(is), ngb, kkbeta, lmaxq =     2    8 2788  865    3

                        qqq 
  -0.1022   0.5410   0.0000   0.0000
   0.5410  -2.5883   0.0000   0.0000
   0.0000   0.0000   0.2297   0.2861
   0.0000   0.0000   0.2861   0.3565



   Common initialization

   Specie:     1
   1  indv=  1   ang. mom=  0
   2  indv=  2   ang. mom=  0

                        dion 
  -0.0211  -0.0150
  -0.0150  -0.0104

   Specie:     2
   1  indv=  1   ang. mom=  0
   2  indv=  2   ang. mom=  0
   3  indv=  3   ang. mom=  1
   4  indv=  3   ang. mom=  1
   5  indv=  3   ang. mom=  1
   6  indv=  4   ang. mom=  1
   7  indv=  4   ang. mom=  1
   8  indv=  4   ang. mom=  1

                        dion 
   0.4798  -1.3236   0.0000   0.0000
  -1.3236   2.2757   0.0000   0.0000
   0.0000   0.0000   0.6278   0.8512
   0.0000   0.0000   0.8512   1.1500

   Cell parameters from input file are used in electron mass preconditioning
   init_tpiba2=    0.09869604

   Short Legend and Physical Units in the Output
   ---------------------------------------------
   NFI    [int]          - step index
   EKINC  [HARTREE A.U.] - kinetic energy of the fictitious electronic dynamics
   TEMPH  [K]            - Temperature of the fictitious cell dynamics
   TEMP   [K]            - Ionic temperature
   ETOT   [HARTREE A.U.] - Scf total energy (Kohn-Sham hamiltonian)
   ENTHAL [HARTREE A.U.] - Enthalpy ( ETOT + P * V )
   ECONS  [HARTREE A.U.] - Enthalpy + kinetic energy of ions and cell
   ECONT  [HARTREE A.U.] - Constant of motion for the CP lagrangian



   Wave Initialization: random initial wave-functions
   Occupation number from init
   nbnd =     4
    2.00 2.00 2.00 2.00

   formf: eself=    30.31961
   formf:     vps(g=0)=  -0.0000605     rhops(g=0)=  -0.0001250
   formf:     vps(g=0)=  -0.0000601     rhops(g=0)=  -0.0001242
   formf:     vps(g=0)=  -0.0000601     rhops(g=0)=  -0.0001242
   formf:     vps(g=0)=  -0.0000601     rhops(g=0)=  -0.0001242
   formf:     vps(g=0)=  -0.0000598     rhops(g=0)=  -0.0001235
   formf: sum_g vps(g)=  -0.0888832 sum_g rhops(g)=  -0.7171034
   formf:     vps(g=0)=  -0.0001262     rhops(g=0)=  -0.0007500
   formf:     vps(g=0)=  -0.0001248     rhops(g=0)=  -0.0007454
   formf:     vps(g=0)=  -0.0001248     rhops(g=0)=  -0.0007454
   formf:     vps(g=0)=  -0.0001248     rhops(g=0)=  -0.0007454
   formf:     vps(g=0)=  -0.0001235     rhops(g=0)=  -0.0007408
   formf: sum_g vps(g)=   0.9003747 sum_g rhops(g)=  -4.3026204
   Delta V(G=0):   0.000785Ry,    0.021372eV

   from rhoofr: total integrated electronic density
   in g-space =      8.000000   in r-space =     8.000000

  nfi     ekinc              temph  tempp     etot                 enthal               econs                econt              vnhh    xnhh0   vnhp    xnhp0
      1    0.041857379017684    0.0    0.00       9.482444965237       9.482444965237       9.482444965237       9.524302344254   0.0000   0.0000   0.0000   0.0000
      2    0.130427467092388    0.0    0.00       9.375799680273       9.375799680273       9.375799680273       9.506227147366   0.0000   0.0000   0.0000   0.0000
      3    0.259569239840812    0.0    0.00       9.206349358684       9.206349358684       9.206349358684       9.465918598525   0.0000   0.0000   0.0000   0.0000
      4    0.417384305419392    0.0    0.00       8.979142014917       8.979142014917       8.979142014917       9.396526320337   0.0000   0.0000   0.0000   0.0000
      5    0.594873767645343    0.0    0.00       8.698410410670       8.698410410670       8.698410410670       9.293284178316   0.0000   0.0000   0.0000   0.0000
      6    0.785352289132316    0.0    0.00       8.367637583085       8.367637583085       8.367637583085       9.152989872217   0.0000   0.0000   0.0000   0.0000
      7    0.983982463458547    0.0    0.00       7.989605952480       7.989605952480       7.989605952480       8.973588415939   0.0000   0.0000   0.0000   0.0000
      8    1.187395648579852    0.0    0.00       7.566444193868       7.566444193868       7.566444193868       8.753839842448   0.0000   0.0000   0.0000   0.0000
      9    1.393370975001017    0.0    0.00       7.099684821430       7.099684821430       7.099684821430       8.493055796431   0.0000   0.0000   0.0000   0.0000
     10    1.600548798561128    0.0    0.00       6.590348374388       6.590348374388       6.590348374388       8.190897172949   0.0000   0.0000   0.0000   0.0000
     11    1.808159273214366    0.0    0.00       6.039068843561       6.039068843561       6.039068843561       7.847228116776   0.0000   0.0000   0.0000   0.0000
     12    2.015751838446696    0.0    0.00       5.446270472597       5.446270472597       5.446270472597       7.462022311044   0.0000   0.0000   0.0000   0.0000
     13    2.222917724323945    0.0    0.00       4.812407967588       4.812407967588       4.812407967588       7.035325691912   0.0000   0.0000   0.0000   0.0000
     14    2.429005796111668    0.0    0.00       4.138271289950       4.138271289950       4.138271289950       6.567277086062   0.0000   0.0000   0.0000   0.0000
     15    2.632842539952801    0.0    0.00       3.425344806667       3.425344806667       3.425344806667       6.058187346620   0.0000   0.0000   0.0000   0.0000
     16    2.832480981184684    0.0    0.00       2.676193568467       2.676193568467       2.676193568467       5.508674549651   0.0000   0.0000   0.0000   0.0000
     17    3.025016775462158    0.0    0.00       1.894827581519       1.894827581519       1.894827581519       4.919844356982   0.0000   0.0000   0.0000   0.0000
     18    3.206518260101387    0.0    0.00       1.086979633690       1.086979633690       1.086979633690       4.293497893791   0.0000   0.0000   0.0000   0.0000
     19    3.372117716923572    0.0    0.00       0.260221943337       0.260221943337       0.260221943337       3.632339660260   0.0000   0.0000   0.0000   0.0000
     20    3.516296477966268    0.0    0.00      -0.576154563645      -0.576154563645      -0.576154563645       2.940141914321   0.0000   0.0000   0.0000   0.0000
     21    3.633363535537995    0.0    0.00      -1.411535709128      -1.411535709128      -1.411535709128       2.221827826410   0.0000   0.0000   0.0000   0.0000
     22    3.718082837826663    0.0    0.00      -2.234646503705      -2.234646503705      -2.234646503705       1.483436334122   0.0000   0.0000   0.0000   0.0000
     23    3.766359187217845    0.0    0.00      -3.034407266183      -3.034407266183      -3.034407266183       0.731951921035   0.0000   0.0000   0.0000   0.0000
     24    3.775862910759560    0.0    0.00      -3.800866896784      -3.800866896784      -3.800866896784      -0.025003986024   0.0000   0.0000   0.0000   0.0000
     25    3.746464462981985    0.0    0.00      -4.526048498317      -4.526048498317      -4.526048498317      -0.779584035335   0.0000   0.0000   0.0000   0.0000
     26    3.680379037103968    0.0    0.00      -5.204559298188      -5.204559298188      -5.204559298188      -1.524180261084   0.0000   0.0000   0.0000   0.0000
     27    3.581984262158174    0.0    0.00      -5.833869236638      -5.833869236638      -5.833869236638      -2.251884974480   0.0000   0.0000   0.0000   0.0000
     28    3.457343169260122    0.0    0.00      -6.414217153625      -6.414217153625      -6.414217153625      -2.956873984365   0.0000   0.0000   0.0000   0.0000
     29    3.313521890537720    0.0    0.00      -6.948185693212      -6.948185693212      -6.948185693212      -3.634663802674   0.0000   0.0000   0.0000   0.0000
     30    3.157824132303450    0.0    0.00      -7.440044286872      -7.440044286872      -7.440044286872      -4.282220154569   0.0000   0.0000   0.0000   0.0000
     31    2.997065400814543    0.0    0.00      -7.894998279423      -7.894998279423      -7.894998279423      -4.897932878609   0.0000   0.0000   0.0000   0.0000
     32    2.836988237210676    0.0    0.00      -8.318433730603      -8.318433730603      -8.318433730603      -5.481445493392   0.0000   0.0000   0.0000   0.0000
     33    2.681890631103806    0.0    0.00      -8.715281883025      -8.715281883025      -8.715281883025      -6.033391251921   0.0000   0.0000   0.0000   0.0000
     34    2.534494688605411    0.0    0.00      -9.089582604750      -9.089582604750      -9.089582604750      -6.555087916145   0.0000   0.0000   0.0000   0.0000
     35    2.396034720088065    0.0    0.00      -9.444265532061      -9.444265532061      -9.444265532061      -7.048230811973   0.0000   0.0000   0.0000   0.0000
     36    2.266513058850811    0.0    0.00      -9.781136641848      -9.781136641848      -9.781136641848      -7.514623582997   0.0000   0.0000   0.0000   0.0000
     37    2.145056873725903    0.0    0.00     -10.101027503644     -10.101027503644     -10.101027503644      -7.955970629918   0.0000   0.0000   0.0000   0.0000
     38    2.030305406147003    0.0    0.00     -10.404049617317     -10.404049617317     -10.404049617317      -8.373744211170   0.0000   0.0000   0.0000   0.0000
     39    1.920766483471395    0.0    0.00     -10.689891307394     -10.689891307394     -10.689891307394      -8.769124823923   0.0000   0.0000   0.0000   0.0000
     40    1.815099659850255    0.0    0.00     -10.958105892421     -10.958105892421     -10.958105892421      -9.143006232571   0.0000   0.0000   0.0000   0.0000
     41    1.712303571221932    0.0    0.00     -11.208351863176     -11.208351863176     -11.208351863176      -9.496048291954   0.0000   0.0000   0.0000   0.0000
     42    1.611805047242848    0.0    0.00     -11.440560925518     -11.440560925518     -11.440560925518      -9.828755878276   0.0000   0.0000   0.0000   0.0000
     43    1.513463534499833    0.0    0.00     -11.655030686577     -11.655030686577     -11.655030686577     -10.141567152077   0.0000   0.0000   0.0000   0.0000
     44    1.417513328746459    0.0    0.00     -11.852446153410     -11.852446153410     -11.852446153410     -10.434932824663   0.0000   0.0000   0.0000   0.0000
     45    1.324468798501914    0.0    0.00     -12.033849069351     -12.033849069351     -12.033849069351     -10.709380270849   0.0000   0.0000   0.0000   0.0000
     46    1.235015347429412    0.0    0.00     -12.200573345927     -12.200573345927     -12.200573345927     -10.965557998498   0.0000   0.0000   0.0000   0.0000
     47    1.149903807098846    0.0    0.00     -12.354164678902     -12.354164678902     -12.354164678902     -11.204260871803   0.0000   0.0000   0.0000   0.0000
     48    1.069860097892036    0.0    0.00     -12.496294082704     -12.496294082704     -12.496294082704     -11.426433984812   0.0000   0.0000   0.0000   0.0000
     49    0.995516314210894    0.0    0.00     -12.628675548064     -12.628675548064     -12.628675548064     -11.633159233853   0.0000   0.0000   0.0000   0.0000
     50    0.927364742872286    0.0    0.00     -12.752996305546     -12.752996305546     -12.752996305546     -11.825631562674   0.0000   0.0000   0.0000   0.0000
     51    0.865732999591752    0.0    0.00     -12.870861037992     -12.870861037992     -12.870861037992     -12.005128038400   0.0000   0.0000   0.0000   0.0000
     52    0.810776564572637    0.0    0.00     -12.983750339059     -12.983750339059     -12.983750339059     -12.172973774486   0.0000   0.0000   0.0000   0.0000
     53    0.762484440530657    0.0    0.00     -13.092992433265     -13.092992433265     -13.092992433265     -12.330507992734   0.0000   0.0000   0.0000   0.0000
     54    0.720693823293480    0.0    0.00     -13.199745709116     -13.199745709116     -13.199745709116     -12.479051885822   0.0000   0.0000   0.0000   0.0000
     55    0.685110244823592    0.0    0.00     -13.304990234324     -13.304990234324     -13.304990234324     -12.619879989501   0.0000   0.0000   0.0000   0.0000
     56    0.655330451869021    0.0    0.00     -13.409526372977     -13.409526372977     -13.409526372977     -12.754195921108   0.0000   0.0000   0.0000   0.0000
     57    0.630866004588443    0.0    0.00     -13.513979074763     -13.513979074763     -13.513979074763     -12.883113070175   0.0000   0.0000   0.0000   0.0000
     58    0.611166214131590    0.0    0.00     -13.618806146552     -13.618806146552     -13.618806146552     -13.007639932420   0.0000   0.0000   0.0000   0.0000
     59    0.595639607909672    0.0    0.00     -13.724309669157     -13.724309669157     -13.724309669157     -13.128670061247   0.0000   0.0000   0.0000   0.0000
     60    0.583673450177250    0.0    0.00     -13.830649429475     -13.830649429475     -13.830649429475     -13.246975979298   0.0000   0.0000   0.0000   0.0000
     61    0.574651115998933    0.0    0.00     -13.937857796926     -13.937857796926     -13.937857796926     -13.363206680927   0.0000   0.0000   0.0000   0.0000
     62    0.567967280769993    0.0    0.00     -14.045855832121     -14.045855832121     -14.045855832121     -13.477888551351   0.0000   0.0000   0.0000   0.0000
     63    0.563040977265033    0.0    0.00     -14.154469943799     -14.154469943799     -14.154469943799     -13.591428966534   0.0000   0.0000   0.0000   0.0000
     64    0.559326611123519    0.0    0.00     -14.263448887383     -14.263448887383     -14.263448887383     -13.704122276259   0.0000   0.0000   0.0000   0.0000
     65    0.556323001845904    0.0    0.00     -14.372480869717     -14.372480869717     -14.372480869717     -13.816157867872   0.0000   0.0000   0.0000   0.0000
     66    0.553580515324736    0.0    0.00     -14.481210430687     -14.481210430687     -14.481210430687     -13.927629915362   0.0000   0.0000   0.0000   0.0000
     67    0.550706341819831    0.0    0.00     -14.589254511468     -14.589254511468     -14.589254511468     -14.038548169648   0.0000   0.0000   0.0000   0.0000
     68    0.547367966358306    0.0    0.00     -14.696217718832     -14.696217718832     -14.696217718832     -14.148849752473   0.0000   0.0000   0.0000   0.0000
     69    0.543294879725548    0.0    0.00     -14.801706381614     -14.801706381614     -14.801706381614     -14.258411501889   0.0000   0.0000   0.0000   0.0000
     70    0.538278593896067    0.0    0.00     -14.905341006816     -14.905341006816     -14.905341006816     -14.367062412920   0.0000   0.0000   0.0000   0.0000
     71    0.532171054962957    0.0    0.00     -15.006767022425     -15.006767022425     -15.006767022425     -14.474595967462   0.0000   0.0000   0.0000   0.0000
     72    0.524881597045479    0.0    0.00     -15.105663624623     -15.105663624623     -15.105663624623     -14.580782027577   0.0000   0.0000   0.0000   0.0000
     73    0.516372592883641    0.0    0.00     -15.201750637795     -15.201750637795     -15.201750637795     -14.685378044912   0.0000   0.0000   0.0000   0.0000
     74    0.506653998628176    0.0    0.00     -15.294793015177     -15.294793015177     -15.294793015177     -14.788139016549   0.0000   0.0000   0.0000   0.0000
     75    0.495777047330601    0.0    0.00     -15.384603733132     -15.384603733132     -15.384603733132     -14.888826685802   0.0000   0.0000   0.0000   0.0000
     76    0.483827352679041    0.0    0.00     -15.471044366947     -15.471044366947     -15.471044366947     -14.987217014268   0.0000   0.0000   0.0000   0.0000
     77    0.470917687141093    0.0    0.00     -15.554023838081     -15.554023838081     -15.554023838081     -15.083106150940   0.0000   0.0000   0.0000   0.0000
     78    0.457180736635668    0.0    0.00     -15.633495839626     -15.633495839626     -15.633495839626     -15.176315102991   0.0000   0.0000   0.0000   0.0000
     79    0.442762109398190    0.0    0.00     -15.709454748950     -15.709454748950     -15.709454748950     -15.266692639552   0.0000   0.0000   0.0000   0.0000
     80    0.427813792252231    0.0    0.00     -15.781931027448     -15.781931027448     -15.781931027448     -15.354117235196   0.0000   0.0000   0.0000   0.0000
     81    0.412488252968707    0.0    0.00     -15.850986039646     -15.850986039646     -15.850986039646     -15.438497786678   0.0000   0.0000   0.0000   0.0000
     82    0.396933388972122    0.0    0.00     -15.916706697272     -15.916706697272     -15.916706697272     -15.519773308300   0.0000   0.0000   0.0000   0.0000
     83    0.381288380452743    0.0    0.00     -15.979200061849     -15.979200061849     -15.979200061849     -15.597911681396   0.0000   0.0000   0.0000   0.0000
     84    0.365680454021758    0.0    0.00     -16.038588016363     -16.038588016363     -16.038588016363     -15.672907562341   0.0000   0.0000   0.0000   0.0000
     85    0.350222599466037    0.0    0.00     -16.095002256708     -16.095002256708     -16.095002256708     -15.744779657242   0.0000   0.0000   0.0000   0.0000
     86    0.335012199831865    0.0    0.00     -16.148580002561     -16.148580002561     -16.148580002561     -15.813567802730   0.0000   0.0000   0.0000   0.0000
     87    0.320130452786174    0.0    0.00     -16.199460222153     -16.199460222153     -16.199460222153     -15.879329769366   0.0000   0.0000   0.0000   0.0000
     88    0.305642504664801    0.0    0.00     -16.247780638569     -16.247780638569     -16.247780638569     -15.942138133904   0.0000   0.0000   0.0000   0.0000
     89    0.291598170074834    0.0    0.00     -16.293675139333     -16.293675139333     -16.293675139333     -16.002076969258   0.0000   0.0000   0.0000   0.0000
     90    0.278033080430065    0.0    0.00     -16.337272110187     -16.337272110187     -16.337272110187     -16.059239029757   0.0000   0.0000   0.0000   0.0000
     91    0.264970172166469    0.0    0.00     -16.378692978650     -16.378692978650     -16.378692978650     -16.113722806483   0.0000   0.0000   0.0000   0.0000
     92    0.252421355532906    0.0    0.00     -16.418051755584     -16.418051755584     -16.418051755584     -16.165630400051   0.0000   0.0000   0.0000   0.0000
     93    0.240389261523825    0.0    0.00     -16.455454640307     -16.455454640307     -16.455454640307     -16.215065378783   0.0000   0.0000   0.0000   0.0000
     94    0.228868998021237    0.0    0.00     -16.491000177010     -16.491000177010     -16.491000177010     -16.262131178988   0.0000   0.0000   0.0000   0.0000
     95    0.217849828158001    0.0    0.00     -16.524779474494     -16.524779474494     -16.524779474494     -16.306929646336   0.0000   0.0000   0.0000   0.0000
     96    0.207316720688662    0.0    0.00     -16.556876932042     -16.556876932042     -16.556876932042     -16.349560211353   0.0000   0.0000   0.0000   0.0000
     97    0.197251729946385    0.0    0.00     -16.587370770500     -16.587370770500     -16.587370770500     -16.390119040553   0.0000   0.0000   0.0000   0.0000
     98    0.187635185866884    0.0    0.00     -16.616333811534     -16.616333811534     -16.616333811534     -16.428698625667   0.0000   0.0000   0.0000   0.0000
     99    0.178446679314431    0.0    0.00     -16.643834133348     -16.643834133348     -16.643834133348     -16.465387454034   0.0000   0.0000   0.0000   0.0000

 * Physical Quantities at step:   100

   from rhoofr: total integrated electronic density
   in g-space =      8.000000   in r-space =     8.000000


                total energy =      -16.66993575430 Hartree a.u.
              kinetic energy =        8.06666 Hartree a.u.
        electrostatic energy =      -23.46389 Hartree a.u.
                         esr =        0.00133 Hartree a.u.
                       eself =       30.31961 Hartree a.u.
      pseudopotential energy =       -0.91649 Hartree a.u.
  n-l pseudopotential energy =        3.80439 Hartree a.u.
 exchange-correlation energy =       -4.16414 Hartree a.u.
           average potential =        0.00000 Hartree a.u.


     electrostatic embedding =        0.00000 Hartree a.u.
           cavitation energy =        0.00723 Hartree a.u.
                   PV energy =       -0.00371 Hartree a.u.

   Eigenvalues (eV), kp =   1 , spin =  1

  -27.16  -13.61   -9.21   -6.98


   CELL_PARAMETERS
   20.00000000    0.00000000    0.00000000
    0.00000000   20.00000000    0.00000000
    0.00000000    0.00000000   20.00000000

   System Density [g/cm^3] :              0.0252137250


   System Volume [A.U.^3] :           8000.0000000000


   Center of mass square displacement (a.u.):   0.000000

   ATOMIC_POSITIONS
   O       0.11790000000000E+02     0.12050000000000E+02     0.11500000000000E+02
   H       0.13450000000000E+02     0.11220000000000E+02     0.11500000000000E+02
   H       0.10560000000000E+02     0.10660000000000E+02     0.11500000000000E+02

   ATOMIC_VELOCITIES
   O       0.00000000000000E+00     0.00000000000000E+00     0.00000000000000E+00
   H       0.00000000000000E+00     0.00000000000000E+00     0.00000000000000E+00
   H       0.00000000000000E+00     0.00000000000000E+00     0.00000000000000E+00

   Forces acting on atoms (au):
   O      -0.35097940731581E-01     0.27713144731054E+00     0.15286423457594E+00
   H      -0.50148325911602E-01    -0.19613328527617E-02     0.90464760106381E-01
   H       0.20299621975904E-01     0.90075828317771E-01    -0.23935945030718E-01



   Partial temperatures (for each ionic specie) 
   Species  Temp (K)   Mean Square Displacement (a.u.)
        1   0.00E+00     0.0000E+00
        2   0.00E+00     0.0000E+00

  nfi     ekinc              temph  tempp     etot                 enthal               econs                econt              vnhh    xnhh0   vnhp    xnhp0
    100    0.169665848626563    0.0    0.00     -16.669935754297     -16.669935754297     -16.669935754297     -16.500269905670   0.0000   0.0000   0.0000   0.0000

     restart      :      0.03s CPU      0.05s WALL (       1 calls)
    101    0.161272973810284    0.0    0.00     -16.694699335077     -16.694699335077     -16.694699335077     -16.533426361267   0.0000   0.0000   0.0000   0.0000
    102    0.153249389260353    0.0    0.00     -16.718182778741     -16.718182778741     -16.718182778741     -16.564933389480   0.0000   0.0000   0.0000   0.0000
    103    0.145577739582114    0.0    0.00     -16.740441672796     -16.740441672796     -16.740441672796     -16.594863933214   0.0000   0.0000   0.0000   0.0000
    104    0.138242106408408    0.0    0.00     -16.761529640126     -16.761529640126     -16.761529640126     -16.623287533718   0.0000   0.0000   0.0000   0.0000
    105    0.131228030641379    0.0    0.00     -16.781498654761     -16.781498654761     -16.781498654761     -16.650270624120   0.0000   0.0000   0.0000   0.0000
    106    0.124522452446398    0.0    0.00     -16.800399311328     -16.800399311328     -16.800399311328     -16.675876858882   0.0000   0.0000   0.0000   0.0000
    107    0.118113595589392    0.0    0.00     -16.818280942039     -16.818280942039     -16.818280942039     -16.700167346450   0.0000   0.0000   0.0000   0.0000
    108    0.111990810316527    0.0    0.00     -16.835191767404     -16.835191767404     -16.835191767404     -16.723200957088   0.0000   0.0000   0.0000   0.0000
    109    0.106144390942047    0.0    0.00     -16.851178821542     -16.851178821542     -16.851178821542     -16.745034430600   0.0000   0.0000   0.0000   0.0000
    110    0.100565387247546    0.0    0.00     -16.866287913930     -16.866287913930     -16.866287913930     -16.765722526683   0.0000   0.0000   0.0000   0.0000
    111    0.095245420463652    0.0    0.00     -16.880563680127     -16.880563680127     -16.880563680127     -16.785318259663   0.0000   0.0000   0.0000   0.0000
    112    0.090176513196499    0.0    0.00     -16.894049481021     -16.894049481021     -16.894049481021     -16.803872967824   0.0000   0.0000   0.0000   0.0000
    113    0.085350941266521    0.0    0.00     -16.906787294485     -16.906787294485     -16.906787294485     -16.821436353219   0.0000   0.0000   0.0000   0.0000
    114    0.080761109134259    0.0    0.00     -16.918817711672     -16.918817711672     -16.918817711672     -16.838056602538   0.0000   0.0000   0.0000   0.0000
    115    0.076399452149968    0.0    0.00     -16.930179768947     -16.930179768947     -16.930179768947     -16.853780316797   0.0000   0.0000   0.0000   0.0000
    116    0.072258366911587    0.0    0.00     -16.940910879799     -16.940910879799     -16.940910879799     -16.868652512887   0.0000   0.0000   0.0000   0.0000
    117    0.068330162826654    0.0    0.00     -16.951046848398     -16.951046848398     -16.951046848398     -16.882716685571   0.0000   0.0000   0.0000   0.0000
    118    0.064607037764061    0.0    0.00     -16.960621796504     -16.960621796504     -16.960621796504     -16.896014758740   0.0000   0.0000   0.0000   0.0000
    119    0.061081075157020    0.0    0.00     -16.969668124125     -16.969668124125     -16.969668124125     -16.908587048968   0.0000   0.0000   0.0000   0.0000
    120    0.057744255297180    0.0    0.00     -16.978216542516     -16.978216542516     -16.978216542516     -16.920472287219   0.0000   0.0000   0.0000   0.0000
    121    0.054588479760265    0.0    0.00     -16.986296096326     -16.986296096326     -16.986296096326     -16.931707616565   0.0000   0.0000   0.0000   0.0000
    122    0.051605608216655    0.0    0.00     -16.993934054613     -16.993934054613     -16.993934054613     -16.942328446396   0.0000   0.0000   0.0000   0.0000
    123    0.048787502928826    0.0    0.00     -17.001156048806     -17.001156048806     -17.001156048806     -16.952368545877   0.0000   0.0000   0.0000   0.0000
    124    0.046126073784898    0.0    0.00     -17.007986192814     -17.007986192814     -17.007986192814     -16.961860119030   0.0000   0.0000   0.0000   0.0000
    125    0.043613327292339    0.0    0.00     -17.014447019710     -17.014447019710     -17.014447019710     -16.970833692418   0.0000   0.0000   0.0000   0.0000
    126    0.041241413992650    0.0    0.00     -17.020559657016     -17.020559657016     -17.020559657016     -16.979318243023   0.0000   0.0000   0.0000   0.0000
    127    0.039002669293806    0.0    0.00     -17.026343922286     -17.026343922286     -17.026343922286     -16.987341252992   0.0000   0.0000   0.0000   0.0000
    128    0.036889651474495    0.0    0.00     -17.031818362049     -17.031818362049     -17.031818362049     -16.994928710575   0.0000   0.0000   0.0000   0.0000
    129    0.034895180226320    0.0    0.00     -17.037000192441     -17.037000192441     -17.037000192441     -17.002105012215   0.0000   0.0000   0.0000   0.0000
    130    0.033012366275283    0.0    0.00     -17.041905622655     -17.041905622655     -17.041905622655     -17.008893256379   0.0000   0.0000   0.0000   0.0000
    131    0.031234629577711    0.0    0.00     -17.046549826662     -17.046549826662     -17.046549826662     -17.015315197084   0.0000   0.0000   0.0000   0.0000
    132    0.029555715574149    0.0    0.00     -17.050947009757     -17.050947009757     -17.050947009757     -17.021391294183   0.0000   0.0000   0.0000   0.0000
    133    0.027969705688769    0.0    0.00     -17.055110511026     -17.055110511026     -17.055110511026     -17.027140805337   0.0000   0.0000   0.0000   0.0000
    134    0.026471021155514    0.0    0.00     -17.059052888502     -17.059052888502     -17.059052888502     -17.032581867347   0.0000   0.0000   0.0000   0.0000
    135    0.025054423555996    0.0    0.00     -17.062785927856     -17.062785927856     -17.062785927856     -17.037731504300   0.0000   0.0000   0.0000   0.0000
    136    0.023715011056879    0.0    0.00     -17.066320697475     -17.066320697475     -17.066320697475     -17.042605686418   0.0000   0.0000   0.0000   0.0000
    137    0.022448207956968    0.0    0.00     -17.069667686812     -17.069667686812     -17.069667686812     -17.047219478855   0.0000   0.0000   0.0000   0.0000
    138    0.021249754201317    0.0    0.00     -17.072836653528     -17.072836653528     -17.072836653528     -17.051586899327   0.0000   0.0000   0.0000   0.0000
    139    0.020115690802202    0.0    0.00     -17.075836912403     -17.075836912403     -17.075836912403     -17.055721221601   0.0000   0.0000   0.0000   0.0000
    140    0.019042340330327    0.0    0.00     -17.078677288060     -17.078677288060     -17.078677288060     -17.059634947730   0.0000   0.0000   0.0000   0.0000
    141    0.018026288496689    0.0    0.00     -17.081366104540     -17.081366104540     -17.081366104540     -17.063339816043   0.0000   0.0000   0.0000   0.0000
    142    0.017064363686442    0.0    0.00     -17.083911349604     -17.083911349604     -17.083911349604     -17.066846985918   0.0000   0.0000   0.0000   0.0000
    143    0.016153616360292    0.0    0.00     -17.086320594552     -17.086320594552     -17.086320594552     -17.070166978192   0.0000   0.0000   0.0000   0.0000
    144    0.015291300812669    0.0    0.00     -17.088601037277     -17.088601037277     -17.088601037277     -17.073309736464   0.0000   0.0000   0.0000   0.0000
    145    0.014474856856578    0.0    0.00     -17.090759496601     -17.090759496601     -17.090759496601     -17.076284639745   0.0000   0.0000   0.0000   0.0000
    146    0.013701890069550    0.0    0.00     -17.092802542555     -17.092802542555     -17.092802542555     -17.079100652486   0.0000   0.0000   0.0000   0.0000
    147    0.012970155090026    0.0    0.00     -17.094736394650     -17.094736394650     -17.094736394650     -17.081766239560   0.0000   0.0000   0.0000   0.0000
    148    0.012277540844434    0.0    0.00     -17.096567000714     -17.096567000714     -17.096567000714     -17.084289459870   0.0000   0.0000   0.0000   0.0000
    149    0.011622056122458    0.0    0.00     -17.098300010231     -17.098300010231     -17.098300010231     -17.086677954109   0.0000   0.0000   0.0000   0.0000
    150    0.011001819425558    0.0    0.00     -17.099940718440     -17.099940718440     -17.099940718440     -17.088938899014   0.0000   0.0000   0.0000   0.0000
    151    0.010415047552979    0.0    0.00     -17.101494268879     -17.101494268879     -17.101494268879     -17.091079221326   0.0000   0.0000   0.0000   0.0000
    152    0.009860046145668    0.0    0.00     -17.102965443759     -17.102965443759     -17.102965443759     -17.093105397614   0.0000   0.0000   0.0000   0.0000
    153    0.009335201986448    0.0    0.00     -17.104358867211     -17.104358867211     -17.104358867211     -17.095023665224   0.0000   0.0000   0.0000   0.0000
    154    0.008838976399244    0.0    0.00     -17.105678837646     -17.105678837646     -17.105678837646     -17.096839861247   0.0000   0.0000   0.0000   0.0000
    155    0.008369900587247    0.0    0.00     -17.106929459427     -17.106929459427     -17.106929459427     -17.098559558840   0.0000   0.0000   0.0000   0.0000
    156    0.007926569687630    0.0    0.00     -17.108114632338     -17.108114632338     -17.108114632338     -17.100188062651   0.0000   0.0000   0.0000   0.0000
    157    0.007507640132257    0.0    0.00     -17.109238002291     -17.109238002291     -17.109238002291     -17.101730362158   0.0000   0.0000   0.0000   0.0000
    158    0.007111825894270    0.0    0.00     -17.110303069836     -17.110303069836     -17.110303069836     -17.103191243942   0.0000   0.0000   0.0000   0.0000
    159    0.006737896100256    0.0    0.00     -17.111313067154     -17.111313067154     -17.111313067154     -17.104575171053   0.0000   0.0000   0.0000   0.0000
    160    0.006384673912263    0.0    0.00     -17.112271100940     -17.112271100940     -17.112271100940     -17.105886427028   0.0000   0.0000   0.0000   0.0000
    161    0.006051034018411    0.0    0.00     -17.113180052055     -17.113180052055     -17.113180052055     -17.107129018037   0.0000   0.0000   0.0000   0.0000
    162    0.005735901442655    0.0    0.00     -17.114042663916     -17.114042663916     -17.114042663916     -17.108306762473   0.0000   0.0000   0.0000   0.0000
    163    0.005438249861433    0.0    0.00     -17.114861528452     -17.114861528452     -17.114861528452     -17.109423278591   0.0000   0.0000   0.0000   0.0000
    164    0.005157100871301    0.0    0.00     -17.115639061528     -17.115639061528     -17.115639061528     -17.110481960657   0.0000   0.0000   0.0000   0.0000
    165    0.004891524127914    0.0    0.00     -17.116377505570     -17.116377505570     -17.116377505570     -17.111485981442   0.0000   0.0000   0.0000   0.0000
    166    0.004640635206801    0.0    0.00     -17.117079029625     -17.117079029625     -17.117079029625     -17.112438394418   0.0000   0.0000   0.0000   0.0000
    167    0.004403594149126    0.0    0.00     -17.117745633667     -17.117745633667     -17.117745633667     -17.113342039518   0.0000   0.0000   0.0000   0.0000
    168    0.004179605273653    0.0    0.00     -17.118379199443     -17.118379199443     -17.118379199443     -17.114199594169   0.0000   0.0000   0.0000   0.0000
    169    0.003967915025544    0.0    0.00     -17.118981537023     -17.118981537023     -17.118981537023     -17.115013621997   0.0000   0.0000   0.0000   0.0000
    170    0.003767810959893    0.0    0.00     -17.119554300785     -17.119554300785     -17.119554300785     -17.115786489825   0.0000   0.0000   0.0000   0.0000
    171    0.003578620356773    0.0    0.00     -17.120099081688     -17.120099081688     -17.120099081688     -17.116520461331   0.0000   0.0000   0.0000   0.0000
    172    0.003399708896101    0.0    0.00     -17.120617344373     -17.120617344373     -17.120617344373     -17.117217635477   0.0000   0.0000   0.0000   0.0000
    173    0.003230479309696    0.0    0.00     -17.121110494628     -17.121110494628     -17.121110494628     -17.117880015318   0.0000   0.0000   0.0000   0.0000
    174    0.003070369103407    0.0    0.00     -17.121579855733     -17.121579855733     -17.121579855733     -17.118509486630   0.0000   0.0000   0.0000   0.0000
    175    0.002918849359252    0.0    0.00     -17.122026663519     -17.122026663519     -17.122026663519     -17.119107814159   0.0000   0.0000   0.0000   0.0000
    176    0.002775423043238    0.0    0.00     -17.122452096566     -17.122452096566     -17.122452096566     -17.119676673523   0.0000   0.0000   0.0000   0.0000
    177    0.002639623355104    0.0    0.00     -17.122857254193     -17.122857254193     -17.122857254193     -17.120217630838   0.0000   0.0000   0.0000   0.0000
    178    0.002511012032512    0.0    0.00     -17.123243187233     -17.123243187233     -17.123243187233     -17.120732175201   0.0000   0.0000   0.0000   0.0000
    179    0.002389177731481    0.0    0.00     -17.123610871117     -17.123610871117     -17.123610871117     -17.121221693385   0.0000   0.0000   0.0000   0.0000
    180    0.002273734544966    0.0    0.00     -17.123961242451     -17.123961242451     -17.123961242451     -17.121687507906   0.0000   0.0000   0.0000   0.0000
    181    0.002164320271715    0.0    0.00     -17.124295178514     -17.124295178514     -17.124295178514     -17.122130858243   0.0000   0.0000   0.0000   0.0000
    182    0.002060595164606    0.0    0.00     -17.124613505808     -17.124613505808     -17.124613505808     -17.122552910643   0.0000   0.0000   0.0000   0.0000
    183    0.001962240476387    0.0    0.00     -17.124917013311     -17.124917013311     -17.124917013311     -17.122954772834   0.0000   0.0000   0.0000   0.0000
    184    0.001868956953382    0.0    0.00     -17.125206435992     -17.125206435992     -17.125206435992     -17.123337479038   0.0000   0.0000   0.0000   0.0000
    185    0.001780463384956    0.0    0.00     -17.125482494762     -17.125482494762     -17.125482494762     -17.123702031377   0.0000   0.0000   0.0000   0.0000
    186    0.001696495535894    0.0    0.00     -17.125745845754     -17.125745845754     -17.125745845754     -17.124049350218   0.0000   0.0000   0.0000   0.0000
    187    0.001616805055567    0.0    0.00     -17.125997126468     -17.125997126468     -17.125997126468     -17.124380321413   0.0000   0.0000   0.0000   0.0000
    188    0.001541158403164    0.0    0.00     -17.126236926585     -17.126236926585     -17.126236926585     -17.124695768182   0.0000   0.0000   0.0000   0.0000
    189    0.001469335817309    0.0    0.00     -17.126465817896     -17.126465817896     -17.126465817896     -17.124996482079   0.0000   0.0000   0.0000   0.0000
    190    0.001401130382571    0.0    0.00     -17.126684332220     -17.126684332220     -17.126684332220     -17.125283201837   0.0000   0.0000   0.0000   0.0000
    191    0.001336347141340    0.0    0.00     -17.126892988703     -17.126892988703     -17.126892988703     -17.125556641562   0.0000   0.0000   0.0000   0.0000
    192    0.001274802271222    0.0    0.00     -17.127092263632     -17.127092263632     -17.127092263632     -17.125817461361   0.0000   0.0000   0.0000   0.0000
    193    0.001216322549427    0.0    0.00     -17.127282611085     -17.127282611085     -17.127282611085     -17.126066288536   0.0000   0.0000   0.0000   0.0000
    194    0.001160744460012    0.0    0.00     -17.127464472591     -17.127464472591     -17.127464472591     -17.126303728131   0.0000   0.0000   0.0000   0.0000
    195    0.001107913672586    0.0    0.00     -17.127638250650     -17.127638250650     -17.127638250650     -17.126530336978   0.0000   0.0000   0.0000   0.0000
    196    0.001057684635528    0.0    0.00     -17.127804332448     -17.127804332448     -17.127804332448     -17.126746647812   0.0000   0.0000   0.0000   0.0000
    197    0.001009919837187    0.0    0.00     -17.127963095894     -17.127963095894     -17.127963095894     -17.126953176057   0.0000   0.0000   0.0000   0.0000
    198    0.000964489323579    0.0    0.00     -17.128114885344     -17.128114885344     -17.128114885344     -17.127150396020   0.0000   0.0000   0.0000   0.0000
    199    0.000921270435331    0.0    0.00     -17.128260026360     -17.128260026360     -17.128260026360     -17.127338755925   0.0000   0.0000   0.0000   0.0000

 * Physical Quantities at step:   200

   from rhoofr: total integrated electronic density
   in g-space =      8.000000   in r-space =     8.000000


                total energy =      -17.12839883576 Hartree a.u.
              kinetic energy =        7.73064 Hartree a.u.
        electrostatic energy =      -23.19932 Hartree a.u.
                         esr =        0.00133 Hartree a.u.
                       eself =       30.31961 Hartree a.u.
      pseudopotential energy =       -0.91715 Hartree a.u.
  n-l pseudopotential energy =        3.44702 Hartree a.u.
 exchange-correlation energy =       -4.19237 Hartree a.u.
           average potential =        0.00000 Hartree a.u.


     electrostatic embedding =        0.00000 Hartree a.u.
           cavitation energy =        0.00562 Hartree a.u.
                   PV energy =       -0.00286 Hartree a.u.

   Eigenvalues (eV), kp =   1 , spin =  1

  -25.10  -12.99   -9.12   -7.10


   CELL_PARAMETERS
   20.00000000    0.00000000    0.00000000
    0.00000000   20.00000000    0.00000000
    0.00000000    0.00000000   20.00000000

   System Density [g/cm^3] :              0.0252137250


   System Volume [A.U.^3] :           8000.0000000000


   Center of mass square displacement (a.u.):   0.000000

   ATOMIC_POSITIONS
   O       0.11790000000000E+02     0.12050000000000E+02     0.11500000000000E+02
   H       0.13450000000000E+02     0.11220000000000E+02     0.11500000000000E+02
   H       0.10560000000000E+02     0.10660000000000E+02     0.11500000000000E+02

   ATOMIC_VELOCITIES
   O       0.00000000000000E+00     0.00000000000000E+00     0.00000000000000E+00
   H       0.00000000000000E+00     0.00000000000000E+00     0.00000000000000E+00
   H       0.00000000000000E+00     0.00000000000000E+00     0.00000000000000E+00

   Forces acting on atoms (au):
   O      -0.52185626032516E-02    -0.33553849050552E-02     0.15276467292163E-01
   H      -0.93305490463933E-02     0.19824676148769E-02     0.51611298113114E-02
   H       0.67927525225626E-02     0.93490006913055E-02    -0.49807097667449E-04



   Partial temperatures (for each ionic specie) 
   Species  Temp (K)   Mean Square Displacement (a.u.)
        1   0.00E+00     0.0000E+00
        2   0.00E+00     0.0000E+00

  nfi     ekinc              temph  tempp     etot                 enthal               econs                econt              vnhh    xnhh0   vnhp    xnhp0
    200    0.000880147333236    0.0    0.00     -17.128398835756     -17.128398835756     -17.128398835756     -17.127518688422   0.0000   0.0000   0.0000   0.0000

     restart      :      0.05s CPU      0.09s WALL (       2 calls)
    201    0.000841010461780    0.0    0.00     -17.128531619437     -17.128531619437     -17.128531619437     -17.127690608976   0.0000   0.0000   0.0000   0.0000
    202    0.000803756286142    0.0    0.00     -17.128658655101     -17.128658655101     -17.128658655101     -17.127854898815   0.0000   0.0000   0.0000   0.0000
    203    0.000768287051339    0.0    0.00     -17.128780207740     -17.128780207740     -17.128780207740     -17.128011920689   0.0000   0.0000   0.0000   0.0000
    204    0.000734510308437    0.0    0.00     -17.128896542764     -17.128896542764     -17.128896542764     -17.128162032456   0.0000   0.0000   0.0000   0.0000
    205    0.000702338659024    0.0    0.00     -17.129007890731     -17.129007890731     -17.129007890731     -17.128305552072   0.0000   0.0000   0.0000   0.0000
    206    0.000671689537467    0.0    0.00     -17.129114486901     -17.129114486901     -17.129114486901     -17.128442797364   0.0000   0.0000   0.0000   0.0000
    207    0.000642484892161    0.0    0.00     -17.129216547365     -17.129216547365     -17.129216547365     -17.128574062473   0.0000   0.0000   0.0000   0.0000
    208    0.000614650934491    0.0    0.00     -17.129314284892     -17.129314284892     -17.129314284892     -17.128699633958   0.0000   0.0000   0.0000   0.0000
    209    0.000588117930914    0.0    0.00     -17.129407891044     -17.129407891044     -17.129407891044     -17.128819773113   0.0000   0.0000   0.0000   0.0000
    210    0.000562819995403    0.0    0.00     -17.129497548806     -17.129497548806     -17.129497548806     -17.128934728811   0.0000   0.0000   0.0000   0.0000
    211    0.000538694814219    0.0    0.00     -17.129583447019     -17.129583447019     -17.129583447019     -17.129044752204   0.0000   0.0000   0.0000   0.0000
    212    0.000515683493297    0.0    0.00     -17.129665748655     -17.129665748655     -17.129665748655     -17.129150065161   0.0000   0.0000   0.0000   0.0000
    213    0.000493730340950    0.0    0.00     -17.129744616413     -17.129744616413     -17.129744616413     -17.129250886072   0.0000   0.0000   0.0000   0.0000
    214    0.000472782664106    0.0    0.00     -17.129820203347     -17.129820203347     -17.129820203347     -17.129347420683   0.0000   0.0000   0.0000   0.0000
    215    0.000452790631150    0.0    0.00     -17.129892658569     -17.129892658569     -17.129892658569     -17.129439867938   0.0000   0.0000   0.0000   0.0000
    216    0.000433707120755    0.0    0.00     -17.129962113976     -17.129962113976     -17.129962113976     -17.129528406855   0.0000   0.0000   0.0000   0.0000
    217    0.000415487551678    0.0    0.00     -17.130028707196     -17.130028707196     -17.130028707196     -17.129613219644   0.0000   0.0000   0.0000   0.0000
    218    0.000398089711319    0.0    0.00     -17.130092565469     -17.130092565469     -17.130092565469     -17.129694475757   0.0000   0.0000   0.0000   0.0000
    219    0.000381473615985    0.0    0.00     -17.130153807040     -17.130153807040     -17.130153807040     -17.129772333424   0.0000   0.0000   0.0000   0.0000
    220    0.000365601439397    0.0    0.00     -17.130212547624     -17.130212547624     -17.130212547624     -17.129846946184   0.0000   0.0000   0.0000   0.0000
    221    0.000350437343627    0.0    0.00     -17.130268894527     -17.130268894527     -17.130268894527     -17.129918457184   0.0000   0.0000   0.0000   0.0000
    222    0.000335947337773    0.0    0.00     -17.130322954690     -17.130322954690     -17.130322954690     -17.129987007353   0.0000   0.0000   0.0000   0.0000
    223    0.000322099245406    0.0    0.00     -17.130374824116     -17.130374824116     -17.130374824116     -17.130052724871   0.0000   0.0000   0.0000   0.0000
    224    0.000308862536428    0.0    0.00     -17.130424598819     -17.130424598819     -17.130424598819     -17.130115736283   0.0000   0.0000   0.0000   0.0000
    225    0.000296208257644    0.0    0.00     -17.130472369590     -17.130472369590     -17.130472369590     -17.130176161332   0.0000   0.0000   0.0000   0.0000
    226    0.000284108987077    0.0    0.00     -17.130518222430     -17.130518222430     -17.130518222430     -17.130234113443   0.0000   0.0000   0.0000   0.0000
    227    0.000272538646650    0.0    0.00     -17.130562241601     -17.130562241601     -17.130562241601     -17.130289702955   0.0000   0.0000   0.0000   0.0000
    228    0.000261472475564    0.0    0.00     -17.130604502176     -17.130604502176     -17.130604502176     -17.130343029700   0.0000   0.0000   0.0000   0.0000
    229    0.000250887013972    0.0    0.00     -17.130645078128     -17.130645078128     -17.130645078128     -17.130394191114   0.0000   0.0000   0.0000   0.0000
    230    0.000240759937438    0.0    0.00     -17.130684046164     -17.130684046164     -17.130684046164     -17.130443286227   0.0000   0.0000   0.0000   0.0000
    231    0.000231070024837    0.0    0.00     -17.130721471820     -17.130721471820     -17.130721471820     -17.130490401795   0.0000   0.0000   0.0000   0.0000
    232    0.000221797131401    0.0    0.00     -17.130757418817     -17.130757418817     -17.130757418817     -17.130535621685   0.0000   0.0000   0.0000   0.0000
    233    0.000212922118976    0.0    0.00     -17.130791950290     -17.130791950290     -17.130791950290     -17.130579028171   0.0000   0.0000   0.0000   0.0000
    234    0.000204426780175    0.0    0.00     -17.130825127324     -17.130825127324     -17.130825127324     -17.130620700543   0.0000   0.0000   0.0000   0.0000
    235    0.000196293774549    0.0    0.00     -17.130857006868     -17.130857006868     -17.130857006868     -17.130660713094   0.0000   0.0000   0.0000   0.0000
    236    0.000188506618579    0.0    0.00     -17.130887639256     -17.130887639256     -17.130887639256     -17.130699132638   0.0000   0.0000   0.0000   0.0000
    237    0.000181049642224    0.0    0.00     -17.130917078440     -17.130917078440     -17.130917078440     -17.130736028797   0.0000   0.0000   0.0000   0.0000
    238    0.000173907932475    0.0    0.00     -17.130945374639     -17.130945374639     -17.130945374639     -17.130771466706   0.0000   0.0000   0.0000   0.0000
    239    0.000167067292789    0.0    0.00     -17.130972574785     -17.130972574785     -17.130972574785     -17.130805507492   0.0000   0.0000   0.0000   0.0000
    240    0.000160514188818    0.0    0.00     -17.130998723614     -17.130998723614     -17.130998723614     -17.130838209425   0.0000   0.0000   0.0000   0.0000
    241    0.000154235727988    0.0    0.00     -17.131023869234     -17.131023869234     -17.131023869234     -17.130869633506   0.0000   0.0000   0.0000   0.0000
    242    0.000148219634893    0.0    0.00     -17.131048047912     -17.131048047912     -17.131048047912     -17.130899828277   0.0000   0.0000   0.0000   0.0000
    243    0.000142454234969    0.0    0.00     -17.131071298991     -17.131071298991     -17.131071298991     -17.130928844756   0.0000   0.0000   0.0000   0.0000
    244    0.000136928398902    0.0    0.00     -17.131093663715     -17.131093663715     -17.131093663715     -17.130956735316   0.0000   0.0000   0.0000   0.0000
    245    0.000131631507453    0.0    0.00     -17.131115177968     -17.131115177968     -17.131115177968     -17.130983546461   0.0000   0.0000   0.0000   0.0000
    246    0.000126553469274    0.0    0.00     -17.131135872551     -17.131135872551     -17.131135872551     -17.131009319082   0.0000   0.0000   0.0000   0.0000
    247    0.000121684674842    0.0    0.00     -17.131155782889     -17.131155782889     -17.131155782889     -17.131034098214   0.0000   0.0000   0.0000   0.0000
    248    0.000117015933098    0.0    0.00     -17.131174941785     -17.131174941785     -17.131174941785     -17.131057925852   0.0000   0.0000   0.0000   0.0000
    249    0.000112538487684    0.0    0.00     -17.131193376130     -17.131193376130     -17.131193376130     -17.131080837642   0.0000   0.0000   0.0000   0.0000
    250    0.000108244006197    0.0    0.00     -17.131211117952     -17.131211117952     -17.131211117952     -17.131102873946   0.0000   0.0000   0.0000   0.0000
    251    0.000104124526313    0.0    0.00     -17.131228196527     -17.131228196527     -17.131228196527     -17.131124072001   0.0000   0.0000   0.0000   0.0000
    252    0.000100172463091    0.0    0.00     -17.131244635540     -17.131244635540     -17.131244635540     -17.131144463077   0.0000   0.0000   0.0000   0.0000
    253    0.000096380582279    0.0    0.00     -17.131260461825     -17.131260461825     -17.131260461825     -17.131164081243   0.0000   0.0000   0.0000   0.0000
    254    0.000092741978862    0.0    0.00     -17.131275697945     -17.131275697945     -17.131275697945     -17.131182955966   0.0000   0.0000   0.0000   0.0000
    255    0.000089250063911    0.0    0.00     -17.131290370340     -17.131290370340     -17.131290370340     -17.131201120276   0.0000   0.0000   0.0000   0.0000
    256    0.000085898541965    0.0    0.00     -17.131304501355     -17.131304501355     -17.131304501355     -17.131218602813   0.0000   0.0000   0.0000   0.0000
    257    0.000082681408809    0.0    0.00     -17.131318109224     -17.131318109224     -17.131318109224     -17.131235427815   0.0000   0.0000   0.0000   0.0000
    258    0.000079592935828    0.0    0.00     -17.131331216238     -17.131331216238     -17.131331216238     -17.131251623302   0.0000   0.0000   0.0000   0.0000
    259    0.000076627651982    0.0    0.00     -17.131343841455     -17.131343841455     -17.131343841455     -17.131267213803   0.0000   0.0000   0.0000   0.0000
    260    0.000073780330135    0.0    0.00     -17.131356005280     -17.131356005280     -17.131356005280     -17.131282224950   0.0000   0.0000   0.0000   0.0000
    261    0.000071045989530    0.0    0.00     -17.131367723429     -17.131367723429     -17.131367723429     -17.131296677439   0.0000   0.0000   0.0000   0.0000
    262    0.000068419878369    0.0    0.00     -17.131379013855     -17.131379013855     -17.131379013855     -17.131310593977   0.0000   0.0000   0.0000   0.0000
    263    0.000065897437314    0.0    0.00     -17.131389894398     -17.131389894398     -17.131389894398     -17.131323996961   0.0000   0.0000   0.0000   0.0000
    264    0.000063474310537    0.0    0.00     -17.131400379911     -17.131400379911     -17.131400379911     -17.131336905601   0.0000   0.0000   0.0000   0.0000
    265    0.000061146339154    0.0    0.00     -17.131410487327     -17.131410487327     -17.131410487327     -17.131349340988   0.0000   0.0000   0.0000   0.0000
    266    0.000058909547355    0.0    0.00     -17.131420231095     -17.131420231095     -17.131420231095     -17.131361321547   0.0000   0.0000   0.0000   0.0000
    267    0.000056760145521    0.0    0.00     -17.131429622854     -17.131429622854     -17.131429622854     -17.131372862708   0.0000   0.0000   0.0000   0.0000
    268    0.000054694503791    0.0    0.00     -17.131438678216     -17.131438678216     -17.131438678216     -17.131383983712   0.0000   0.0000   0.0000   0.0000
    269    0.000052709147843    0.0    0.00     -17.131447410213     -17.131447410213     -17.131447410213     -17.131394701065   0.0000   0.0000   0.0000   0.0000
    270    0.000050800763160    0.0    0.00     -17.131455829955     -17.131455829955     -17.131455829955     -17.131405029192   0.0000   0.0000   0.0000   0.0000
    271    0.000048966183809    0.0    0.00     -17.131463950775     -17.131463950775     -17.131463950775     -17.131414984591   0.0000   0.0000   0.0000   0.0000
    272    0.000047202381689    0.0    0.00     -17.131471781204     -17.131471781204     -17.131471781204     -17.131424578822   0.0000   0.0000   0.0000   0.0000
    273    0.000045506450379    0.0    0.00     -17.131479336680     -17.131479336680     -17.131479336680     -17.131433830230   0.0000   0.0000   0.0000   0.0000
    274    0.000043875612023    0.0    0.00     -17.131486622756     -17.131486622756     -17.131486622756     -17.131442747144   0.0000   0.0000   0.0000   0.0000
    275    0.000042307211180    0.0    0.00     -17.131493653393     -17.131493653393     -17.131493653393     -17.131451346182   0.0000   0.0000   0.0000   0.0000
    276    0.000040798700367    0.0    0.00     -17.131500436641     -17.131500436641     -17.131500436641     -17.131459637941   0.0000   0.0000   0.0000   0.0000
    277    0.000039347649863    0.0    0.00     -17.131506981845     -17.131506981845     -17.131506981845     -17.131467634195   0.0000   0.0000   0.0000   0.0000
    278    0.000037951734357    0.0    0.00     -17.131513298920     -17.131513298920     -17.131513298920     -17.131475347185   0.0000   0.0000   0.0000   0.0000
    279    0.000036608725946    0.0    0.00     -17.131519393428     -17.131519393428     -17.131519393428     -17.131482784702   0.0000   0.0000   0.0000   0.0000
    280    0.000035316497843    0.0    0.00     -17.131525275778     -17.131525275778     -17.131525275778     -17.131489959280   0.0000   0.0000   0.0000   0.0000
    281    0.000034073009965    0.0    0.00     -17.131530953360     -17.131530953360     -17.131530953360     -17.131496880350   0.0000   0.0000   0.0000   0.0000
    282    0.000032876304049    0.0    0.00     -17.131536434880     -17.131536434880     -17.131536434880     -17.131503558576   0.0000   0.0000   0.0000   0.0000
    283    0.000031724505099    0.0    0.00     -17.131541727521     -17.131541727521     -17.131541727521     -17.131510003016   0.0000   0.0000   0.0000   0.0000
    284    0.000030615819380    0.0    0.00     -17.131546837275     -17.131546837275     -17.131546837275     -17.131516221456   0.0000   0.0000   0.0000   0.0000
    285    0.000029548534277    0.0    0.00     -17.131551769905     -17.131551769905     -17.131551769905     -17.131522221371   0.0000   0.0000   0.0000   0.0000
    286    0.000028521005498    0.0    0.00     -17.131556535542     -17.131556535542     -17.131556535542     -17.131528014536   0.0000   0.0000   0.0000   0.0000
    287    0.000027531654821    0.0    0.00     -17.131561135691     -17.131561135691     -17.131561135691     -17.131533604036   0.0000   0.0000   0.0000   0.0000
    288    0.000026578968484    0.0    0.00     -17.131565580771     -17.131565580771     -17.131565580771     -17.131539001803   0.0000   0.0000   0.0000   0.0000
    289    0.000025661499683    0.0    0.00     -17.131569873487     -17.131569873487     -17.131569873487     -17.131544211988   0.0000   0.0000   0.0000   0.0000
    290    0.000024777866899    0.0    0.00     -17.131574020450     -17.131574020450     -17.131574020450     -17.131549242584   0.0000   0.0000   0.0000   0.0000
    291    0.000023926746525    0.0    0.00     -17.131578025732     -17.131578025732     -17.131578025732     -17.131554098986   0.0000   0.0000   0.0000   0.0000
    292    0.000023106864047    0.0    0.00     -17.131581896625     -17.131581896625     -17.131581896625     -17.131558789761   0.0000   0.0000   0.0000   0.0000
    293    0.000022316996413    0.0    0.00     -17.131585636679     -17.131585636679     -17.131585636679     -17.131563319683   0.0000   0.0000   0.0000   0.0000
    294    0.000021555974009    0.0    0.00     -17.131589251408     -17.131589251408     -17.131589251408     -17.131567695434   0.0000   0.0000   0.0000   0.0000
    295    0.000020822672513    0.0    0.00     -17.131592744432     -17.131592744432     -17.131592744432     -17.131571921759   0.0000   0.0000   0.0000   0.0000
    296    0.000020116018247    0.0    0.00     -17.131596120630     -17.131596120630     -17.131596120630     -17.131576004612   0.0000   0.0000   0.0000   0.0000
    297    0.000019434980786    0.0    0.00     -17.131599383640     -17.131599383640     -17.131599383640     -17.131579948659   0.0000   0.0000   0.0000   0.0000
    298    0.000018778569176    0.0    0.00     -17.131602537644     -17.131602537644     -17.131602537644     -17.131583759075   0.0000   0.0000   0.0000   0.0000
    299    0.000018145837090    0.0    0.00     -17.131605586564     -17.131605586564     -17.131605586564     -17.131587440727   0.0000   0.0000   0.0000   0.0000

 * Physical Quantities at step:   300

   from rhoofr: total integrated electronic density
   in g-space =      8.000000   in r-space =     8.000000


                total energy =      -17.13160853389 Hartree a.u.
              kinetic energy =        7.73363 Hartree a.u.
        electrostatic energy =      -23.20110 Hartree a.u.
                         esr =        0.00133 Hartree a.u.
                       eself =       30.31961 Hartree a.u.
      pseudopotential energy =       -0.91711 Hartree a.u.
  n-l pseudopotential energy =        3.44313 Hartree a.u.
 exchange-correlation energy =       -4.19292 Hartree a.u.
           average potential =        0.00000 Hartree a.u.


     electrostatic embedding =        0.00000 Hartree a.u.
           cavitation energy =        0.00563 Hartree a.u.
                   PV energy =       -0.00286 Hartree a.u.

   Eigenvalues (eV), kp =   1 , spin =  1

  -25.10  -12.98   -9.13   -7.12


   CELL_PARAMETERS
   20.00000000    0.00000000    0.00000000
    0.00000000   20.00000000    0.00000000
    0.00000000    0.00000000   20.00000000

   System Density [g/cm^3] :              0.0252137250


   System Volume [A.U.^3] :           8000.0000000000


   Center of mass square displacement (a.u.):   0.000000

   ATOMIC_POSITIONS
   O       0.11790000000000E+02     0.12050000000000E+02     0.11500000000000E+02
   H       0.13450000000000E+02     0.11220000000000E+02     0.11500000000000E+02
   H       0.10560000000000E+02     0.10660000000000E+02     0.11500000000000E+02

   ATOMIC_VELOCITIES
   O       0.00000000000000E+00     0.00000000000000E+00     0.00000000000000E+00
   H       0.00000000000000E+00     0.00000000000000E+00     0.00000000000000E+00
   H       0.00000000000000E+00     0.00000000000000E+00     0.00000000000000E+00

   Forces acting on atoms (au):
   O       0.84323607282585E-03    -0.67435901487817E-02     0.32548538041367E-02
   H      -0.72122826222192E-02     0.25501069986602E-02     0.88611672428071E-03
   H       0.57230372587734E-02     0.53779947514744E-02     0.37729380398118E-03



   Partial temperatures (for each ionic specie) 
   Species  Temp (K)   Mean Square Displacement (a.u.)
        1   0.00E+00     0.0000E+00
        2   0.00E+00     0.0000E+00

  nfi     ekinc              temph  tempp     etot                 enthal               econs                econt              vnhh    xnhh0   vnhp    xnhp0
    300    0.000017535876597    0.0    0.00     -17.131608533887     -17.131608533887     -17.131608533887     -17.131590998010   0.0000   0.0000   0.0000   0.0000

     restart      :      0.23s CPU      0.34s WALL (       3 calls)
    301    0.000020397260591    0.0    0.00     -17.142338340710     -17.142338340710     -17.142338340710     -17.142317943449   0.0000   0.0000   0.0000   0.0000
    302    0.000033223348817    0.0    0.00     -17.142356563060     -17.142356563060     -17.142356563060     -17.142323339711   0.0000   0.0000   0.0000   0.0000
    303    0.000057041207115    0.0    0.00     -17.142389461737     -17.142389461737     -17.142389461737     -17.142332420530   0.0000   0.0000   0.0000   0.0000
    304    0.000088181825274    0.0    0.00     -17.142435160665     -17.142435160665     -17.142435160665     -17.142346978840   0.0000   0.0000   0.0000   0.0000
    305    0.000123660190461    0.0    0.00     -17.142491837034     -17.142491837034     -17.142491837034     -17.142368176844   0.0000   0.0000   0.0000   0.0000
    306    0.000161085474157    0.0    0.00     -17.142557727500     -17.142557727500     -17.142557727500     -17.142396642026   0.0000   0.0000   0.0000   0.0000
    307    0.000198579631753    0.0    0.00     -17.142631148385     -17.142631148385     -17.142631148385     -17.142432568753   0.0000   0.0000   0.0000   0.0000
    308    0.000234703772054    0.0    0.00     -17.142710557256     -17.142710557256     -17.142710557256     -17.142475853484   0.0000   0.0000   0.0000   0.0000
    309    0.000268391947962    0.0    0.00     -17.142794467058     -17.142794467058     -17.142794467058     -17.142526075110   0.0000   0.0000   0.0000   0.0000
    310    0.000298891874024    0.0    0.00     -17.142881554140     -17.142881554140     -17.142881554140     -17.142582662266   0.0000   0.0000   0.0000   0.0000
    311    0.000325711946922    0.0    0.00     -17.142970659445     -17.142970659445     -17.142970659445     -17.142644947498   0.0000   0.0000   0.0000   0.0000
    312    0.000348574002735    0.0    0.00     -17.143060898289     -17.143060898289     -17.143060898289     -17.142712324286   0.0000   0.0000   0.0000   0.0000
    313    0.000367372394465    0.0    0.00     -17.143151149944     -17.143151149944     -17.143151149944     -17.142783777549   0.0000   0.0000   0.0000   0.0000
    314    0.000382138410027    0.0    0.00     -17.143240582470     -17.143240582470     -17.143240582470     -17.142858444060   0.0000   0.0000   0.0000   0.0000
    315    0.000393008559772    0.0    0.00     -17.143328652231     -17.143328652231     -17.143328652231     -17.142935643671   0.0000   0.0000   0.0000   0.0000
    316    0.000400197632504    0.0    0.00     -17.143414830140     -17.143414830140     -17.143414830140     -17.143014632508   0.0000   0.0000   0.0000   0.0000
    317    0.000403976183449    0.0    0.00     -17.143498684409     -17.143498684409     -17.143498684409     -17.143094708226   0.0000   0.0000   0.0000   0.0000
    318    0.000404651554523    0.0    0.00     -17.143579833468     -17.143579833468     -17.143579833468     -17.143175181913   0.0000   0.0000   0.0000   0.0000
    319    0.000402552080101    0.0    0.00     -17.143658033950     -17.143658033950     -17.143658033950     -17.143255481870   0.0000   0.0000   0.0000   0.0000
    320    0.000398014241510    0.0    0.00     -17.143733079712     -17.143733079712     -17.143733079712     -17.143335065471   0.0000   0.0000   0.0000   0.0000
    321    0.000391372228358    0.0    0.00     -17.143804941565     -17.143804941565     -17.143804941565     -17.143413569337   0.0000   0.0000   0.0000   0.0000
    322    0.000382949841732    0.0    0.00     -17.143873578474     -17.143873578474     -17.143873578474     -17.143490628633   0.0000   0.0000   0.0000   0.0000
    323    0.000373054979470    0.0    0.00     -17.143938917453     -17.143938917453     -17.143938917453     -17.143565862473   0.0000   0.0000   0.0000   0.0000
    324    0.000361975595835    0.0    0.00     -17.144000910305     -17.144000910305     -17.144000910305     -17.143638934709   0.0000   0.0000   0.0000   0.0000
    325    0.000349976422364    0.0    0.00     -17.144059731483     -17.144059731483     -17.144059731483     -17.143709755060   0.0000   0.0000   0.0000   0.0000
    326    0.000337297203070    0.0    0.00     -17.144115466690     -17.144115466690     -17.144115466690     -17.143778169487   0.0000   0.0000   0.0000   0.0000
    327    0.000324152171329    0.0    0.00     -17.144168190742     -17.144168190742     -17.144168190742     -17.143844038571   0.0000   0.0000   0.0000   0.0000
    328    0.000310730097158    0.0    0.00     -17.144218004090     -17.144218004090     -17.144218004090     -17.143907273992   0.0000   0.0000   0.0000   0.0000
    329    0.000297195052079    0.0    0.00     -17.144265018332     -17.144265018332     -17.144265018332     -17.143967823280   0.0000   0.0000   0.0000   0.0000
    330    0.000283687448693    0.0    0.00     -17.144309419545     -17.144309419545     -17.144309419545     -17.144025732096   0.0000   0.0000   0.0000   0.0000
    331    0.000270325365197    0.0    0.00     -17.144351341331     -17.144351341331     -17.144351341331     -17.144081015966   0.0000   0.0000   0.0000   0.0000
    332    0.000257206399594    0.0    0.00     -17.144390888336     -17.144390888336     -17.144390888336     -17.144133681936   0.0000   0.0000   0.0000   0.0000
    333    0.000244409471795    0.0    0.00     -17.144428199423     -17.144428199423     -17.144428199423     -17.144183789951   0.0000   0.0000   0.0000   0.0000
    334    0.000231996609626    0.0    0.00     -17.144463411412     -17.144463411412     -17.144463411412     -17.144231414802   0.0000   0.0000   0.0000   0.0000
    335    0.000220014934249    0.0    0.00     -17.144496679115     -17.144496679115     -17.144496679115     -17.144276664181   0.0000   0.0000   0.0000   0.0000
    336    0.000208498597010    0.0    0.00     -17.144528088676     -17.144528088676     -17.144528088676     -17.144319590079   0.0000   0.0000   0.0000   0.0000
    337    0.000197470545846    0.0    0.00     -17.144557713119     -17.144557713119     -17.144557713119     -17.144360242574   0.0000   0.0000   0.0000   0.0000
    338    0.000186943884973    0.0    0.00     -17.144585787400     -17.144585787400     -17.144585787400     -17.144398843515   0.0000   0.0000   0.0000   0.0000
    339    0.000176923600921    0.0    0.00     -17.144612308500     -17.144612308500     -17.144612308500     -17.144435384899   0.0000   0.0000   0.0000   0.0000
    340    0.000167408085958    0.0    0.00     -17.144637423861     -17.144637423861     -17.144637423861     -17.144470015775   0.0000   0.0000   0.0000   0.0000
    341    0.000158390296912    0.0    0.00     -17.144661150171     -17.144661150171     -17.144661150171     -17.144502759874   0.0000   0.0000   0.0000   0.0000
    342    0.000149858940160    0.0    0.00     -17.144683606173     -17.144683606173     -17.144683606173     -17.144533747233   0.0000   0.0000   0.0000   0.0000
    343    0.000141799247642    0.0    0.00     -17.144704941913     -17.144704941913     -17.144704941913     -17.144563142666   0.0000   0.0000   0.0000   0.0000
    344    0.000134193965473    0.0    0.00     -17.144725190329     -17.144725190329     -17.144725190329     -17.144590996364   0.0000   0.0000   0.0000   0.0000
    345    0.000127024140573    0.0    0.00     -17.144744423992     -17.144744423992     -17.144744423992     -17.144617399851   0.0000   0.0000   0.0000   0.0000
    346    0.000120269700602    0.0    0.00     -17.144762667484     -17.144762667484     -17.144762667484     -17.144642397783   0.0000   0.0000   0.0000   0.0000
    347    0.000113910030021    0.0    0.00     -17.144779932367     -17.144779932367     -17.144779932367     -17.144666022337   0.0000   0.0000   0.0000   0.0000
    348    0.000107924250358    0.0    0.00     -17.144796339985     -17.144796339985     -17.144796339985     -17.144688415734   0.0000   0.0000   0.0000   0.0000
    349    0.000102291506660    0.0    0.00     -17.144811948350     -17.144811948350     -17.144811948350     -17.144709656844   0.0000   0.0000   0.0000   0.0000
    350    0.000096991355597    0.0    0.00     -17.144826770268     -17.144826770268     -17.144826770268     -17.144729778913   0.0000   0.0000   0.0000   0.0000
    351    0.000092003965484    0.0    0.00     -17.144840858718     -17.144840858718     -17.144840858718     -17.144748854752   0.0000   0.0000   0.0000   0.0000
    352    0.000087310253175    0.0    0.00     -17.144854227754     -17.144854227754     -17.144854227754     -17.144766917501   0.0000   0.0000   0.0000   0.0000
    353    0.000082891987010    0.0    0.00     -17.144866921009     -17.144866921009     -17.144866921009     -17.144784029022   0.0000   0.0000   0.0000   0.0000
    354    0.000078731795400    0.0    0.00     -17.144879006994     -17.144879006994     -17.144879006994     -17.144800275199   0.0000   0.0000   0.0000   0.0000
    355    0.000074813235818    0.0    0.00     -17.144890507189     -17.144890507189     -17.144890507189     -17.144815693953   0.0000   0.0000   0.0000   0.0000
    356    0.000071120792353    0.0    0.00     -17.144901491052     -17.144901491052     -17.144901491052     -17.144830370259   0.0000   0.0000   0.0000   0.0000
    357    0.000067639879196    0.0    0.00     -17.144911970826     -17.144911970826     -17.144911970826     -17.144844330946   0.0000   0.0000   0.0000   0.0000
    358    0.000064357027876    0.0    0.00     -17.144921987131     -17.144921987131     -17.144921987131     -17.144857630104   0.0000   0.0000   0.0000   0.0000
    359    0.000061259439441    0.0    0.00     -17.144931556873     -17.144931556873     -17.144931556873     -17.144870297434   0.0000   0.0000   0.0000   0.0000
    360    0.000058335026355    0.0    0.00     -17.144940713654     -17.144940713654     -17.144940713654     -17.144882378627   0.0000   0.0000   0.0000   0.0000
    361    0.000055572755105    0.0    0.00     -17.144949468064     -17.144949468064     -17.144949468064     -17.144893895308   0.0000   0.0000   0.0000   0.0000
    362    0.000052962377353    0.0    0.00     -17.144957819917     -17.144957819917     -17.144957819917     -17.144904857540   0.0000   0.0000   0.0000   0.0000
    363    0.000050494360312    0.0    0.00     -17.144965812572     -17.144965812572     -17.144965812572     -17.144915318212   0.0000   0.0000   0.0000   0.0000
    364    0.000048159820563    0.0    0.00     -17.144973460472     -17.144973460472     -17.144973460472     -17.144925300651   0.0000   0.0000   0.0000   0.0000
    365    0.000045950498731    0.0    0.00     -17.144980780586     -17.144980780586     -17.144980780586     -17.144934830087   0.0000   0.0000   0.0000   0.0000
    366    0.000043858720924    0.0    0.00     -17.144987769523     -17.144987769523     -17.144987769523     -17.144943910802   0.0000   0.0000   0.0000   0.0000
[...]
    781    0.000000000062057    0.0    0.00     -17.145163159139     -17.145163159139     -17.145163159139     -17.145163159077   0.0000   0.0000   0.0000   0.0000
    782    0.000000000060291    0.0    0.00     -17.145163159263     -17.145163159263     -17.145163159263     -17.145163159202   0.0000   0.0000   0.0000   0.0000
    783    0.000000000058575    0.0    0.00     -17.145163159938     -17.145163159938     -17.145163159938     -17.145163159880   0.0000   0.0000   0.0000   0.0000
    784    0.000000000056909    0.0    0.00     -17.145163159277     -17.145163159277     -17.145163159277     -17.145163159220   0.0000   0.0000   0.0000   0.0000
    785    0.000000000055292    0.0    0.00     -17.145163159229     -17.145163159229     -17.145163159229     -17.145163159173   0.0000   0.0000   0.0000   0.0000
    786    0.000000000053721    0.0    0.00     -17.145163159388     -17.145163159388     -17.145163159388     -17.145163159335   0.0000   0.0000   0.0000   0.0000
    787    0.000000000052195    0.0    0.00     -17.145163159257     -17.145163159257     -17.145163159257     -17.145163159205   0.0000   0.0000   0.0000   0.0000
    788    0.000000000050714    0.0    0.00     -17.145163159233     -17.145163159233     -17.145163159233     -17.145163159183   0.0000   0.0000   0.0000   0.0000
    789    0.000000000049275    0.0    0.00     -17.145163159250     -17.145163159250     -17.145163159250     -17.145163159200   0.0000   0.0000   0.0000   0.0000
    790    0.000000000047878    0.0    0.00     -17.145163158896     -17.145163158896     -17.145163158896     -17.145163158848   0.0000   0.0000   0.0000   0.0000
    791    0.000000000046520    0.0    0.00     -17.145163159237     -17.145163159237     -17.145163159237     -17.145163159190   0.0000   0.0000   0.0000   0.0000
    792    0.000000000045202    0.0    0.00     -17.145163159259     -17.145163159259     -17.145163159259     -17.145163159214   0.0000   0.0000   0.0000   0.0000
    793    0.000000000043922    0.0    0.00     -17.145163158606     -17.145163158606     -17.145163158606     -17.145163158562   0.0000   0.0000   0.0000   0.0000
    794    0.000000000042679    0.0    0.00     -17.145163159241     -17.145163159241     -17.145163159241     -17.145163159199   0.0000   0.0000   0.0000   0.0000
    795    0.000000000041471    0.0    0.00     -17.145163159266     -17.145163159266     -17.145163159266     -17.145163159225   0.0000   0.0000   0.0000   0.0000
    796    0.000000000040298    0.0    0.00     -17.145163158372     -17.145163158372     -17.145163158372     -17.145163158331   0.0000   0.0000   0.0000   0.0000
    797    0.000000000039159    0.0    0.00     -17.145163159246     -17.145163159246     -17.145163159246     -17.145163159206   0.0000   0.0000   0.0000   0.0000
    798    0.000000000038052    0.0    0.00     -17.145163159219     -17.145163159219     -17.145163159219     -17.145163159181   0.0000   0.0000   0.0000   0.0000
    799    0.000000000036978    0.0    0.00     -17.145163158128     -17.145163158128     -17.145163158128     -17.145163158091   0.0000   0.0000   0.0000   0.0000

 * Physical Quantities at step:   800

   from rhoofr: total integrated electronic density
   in g-space =      8.000000   in r-space =     8.000000


                total energy =      -17.14516315919 Hartree a.u.
              kinetic energy =        7.73903 Hartree a.u.
        electrostatic energy =      -23.20884 Hartree a.u.
                         esr =        0.00133 Hartree a.u.
                       eself =       30.31961 Hartree a.u.
      pseudopotential energy =       -0.91715 Hartree a.u.
  n-l pseudopotential energy =        3.45881 Hartree a.u.
 exchange-correlation energy =       -4.20251 Hartree a.u.
           average potential =        0.00000 Hartree a.u.


     electrostatic embedding =       -0.01725 Hartree a.u.
           cavitation energy =        0.00557 Hartree a.u.
                   PV energy =       -0.00282 Hartree a.u.

   Eigenvalues (eV), kp =   1 , spin =  1

  -24.62  -12.39   -8.83   -6.86


   CELL_PARAMETERS
   20.00000000    0.00000000    0.00000000
    0.00000000   20.00000000    0.00000000
    0.00000000    0.00000000   20.00000000

   System Density [g/cm^3] :              0.0252137250


   System Volume [A.U.^3] :           8000.0000000000


   Center of mass square displacement (a.u.):   0.000000

   ATOMIC_POSITIONS
   O       0.11790000000000E+02     0.12050000000000E+02     0.11500000000000E+02
   H       0.13450000000000E+02     0.11220000000000E+02     0.11500000000000E+02
   H       0.10560000000000E+02     0.10660000000000E+02     0.11500000000000E+02

   ATOMIC_VELOCITIES
   O       0.00000000000000E+00     0.00000000000000E+00     0.00000000000000E+00
   H       0.00000000000000E+00     0.00000000000000E+00     0.00000000000000E+00
   H       0.00000000000000E+00     0.00000000000000E+00     0.00000000000000E+00

   Forces acting on atoms (au):
   O       0.11259648794439E-02    -0.60820645523728E-02     0.38128180634596E-05
   H      -0.51777266895023E-02     0.21622241267258E-02     0.51346855097128E-06
   H       0.40232072495239E-02     0.39744357834564E-02     0.50718203499465E-06



   Partial temperatures (for each ionic specie) 
   Species  Temp (K)   Mean Square Displacement (a.u.)
        1   0.00E+00     0.0000E+00
        2   0.00E+00     0.0000E+00

  nfi     ekinc              temph  tempp     etot                 enthal               econs                econt              vnhh    xnhh0   vnhp    xnhp0
    800    0.000000000035934    0.0    0.00     -17.145163159195     -17.145163159195     -17.145163159195     -17.145163159159   0.0000   0.0000   0.0000   0.0000

     restart      :      0.43s CPU      0.57s WALL (       8 calls)
    801    0.000000000034920    0.0    0.00     -17.145163161861     -17.145163161861     -17.145163161861     -17.145163161826   0.0000   0.0000   0.0000   0.0000
    802    0.000000000033935    0.0    0.00     -17.145163159241     -17.145163159241     -17.145163159241     -17.145163159207   0.0000   0.0000   0.0000   0.0000
    803    0.000000000032978    0.0    0.00     -17.145163159178     -17.145163159178     -17.145163159178     -17.145163159145   0.0000   0.0000   0.0000   0.0000
    804    0.000000000032049    0.0    0.00     -17.145163161104     -17.145163161104     -17.145163161104     -17.145163161072   0.0000   0.0000   0.0000   0.0000
    805    0.000000000031146    0.0    0.00     -17.145163159241     -17.145163159241     -17.145163159241     -17.145163159210   0.0000   0.0000   0.0000   0.0000
    806    0.000000000030270    0.0    0.00     -17.145163159189     -17.145163159189     -17.145163159189     -17.145163159159   0.0000   0.0000   0.0000   0.0000
    807    0.000000000029418    0.0    0.00     -17.145163160468     -17.145163160468     -17.145163160468     -17.145163160439   0.0000   0.0000   0.0000   0.0000
    808    0.000000000028590    0.0    0.00     -17.145163159235     -17.145163159235     -17.145163159235     -17.145163159207   0.0000   0.0000   0.0000   0.0000
    809    0.000000000027786    0.0    0.00     -17.145163159197     -17.145163159197     -17.145163159197     -17.145163159169   0.0000   0.0000   0.0000   0.0000
    810    0.000000000027006    0.0    0.00     -17.145163159949     -17.145163159949     -17.145163159949     -17.145163159922   0.0000   0.0000   0.0000   0.0000
    811    0.000000000026247    0.0    0.00     -17.145163159231     -17.145163159231     -17.145163159231     -17.145163159205   0.0000   0.0000   0.0000   0.0000
    812    0.000000000025510    0.0    0.00     -17.145163159204     -17.145163159204     -17.145163159204     -17.145163159178   0.0000   0.0000   0.0000   0.0000
    813    0.000000000024794    0.0    0.00     -17.145163159525     -17.145163159525     -17.145163159525     -17.145163159500   0.0000   0.0000   0.0000   0.0000
    814    0.000000000024098    0.0    0.00     -17.145163159227     -17.145163159227     -17.145163159227     -17.145163159203   0.0000   0.0000   0.0000   0.0000
    815    0.000000000023423    0.0    0.00     -17.145163159209     -17.145163159209     -17.145163159209     -17.145163159185   0.0000   0.0000   0.0000   0.0000
    816    0.000000000022766    0.0    0.00     -17.145163159182     -17.145163159182     -17.145163159182     -17.145163159159   0.0000   0.0000   0.0000   0.0000
    817    0.000000000022128    0.0    0.00     -17.145163159223     -17.145163159223     -17.145163159223     -17.145163159201   0.0000   0.0000   0.0000   0.0000
    818    0.000000000021509    0.0    0.00     -17.145163159212     -17.145163159212     -17.145163159212     -17.145163159191   0.0000   0.0000   0.0000   0.0000
    819    0.000000000020907    0.0    0.00     -17.145163158817     -17.145163158817     -17.145163158817     -17.145163158796   0.0000   0.0000   0.0000   0.0000
    820    0.000000000020323    0.0    0.00     -17.145163159131     -17.145163159131     -17.145163159131     -17.145163159111   0.0000   0.0000   0.0000   0.0000
    821    0.000000000019755    0.0    0.00     -17.145163159127     -17.145163159127     -17.145163159127     -17.145163159107   0.0000   0.0000   0.0000   0.0000
    822    0.000000000019203    0.0    0.00     -17.145163158644     -17.145163158644     -17.145163158644     -17.145163158625   0.0000   0.0000   0.0000   0.0000
    823    0.000000000018667    0.0    0.00     -17.145163159175     -17.145163159175     -17.145163159175     -17.145163159157   0.0000   0.0000   0.0000   0.0000
    824    0.000000000018146    0.0    0.00     -17.145163159176     -17.145163159176     -17.145163159176     -17.145163159157   0.0000   0.0000   0.0000   0.0000
    825    0.000000000017640    0.0    0.00     -17.145163158471     -17.145163158471     -17.145163158471     -17.145163158453   0.0000   0.0000   0.0000   0.0000
    826    0.000000000017149    0.0    0.00     -17.145163159172     -17.145163159172     -17.145163159172     -17.145163159155   0.0000   0.0000   0.0000   0.0000
    827    0.000000000016671    0.0    0.00     -17.145163159080     -17.145163159080     -17.145163159080     -17.145163159064   0.0000   0.0000   0.0000   0.0000
    828    0.000000000016207    0.0    0.00     -17.145163158239     -17.145163158239     -17.145163158239     -17.145163158223   0.0000   0.0000   0.0000   0.0000
    829    0.000000000015756    0.0    0.00     -17.145163159072     -17.145163159072     -17.145163159072     -17.145163159057   0.0000   0.0000   0.0000   0.0000
    830    0.000000000015318    0.0    0.00     -17.145163159081     -17.145163159081     -17.145163159081     -17.145163159065   0.0000   0.0000   0.0000   0.0000
    831    0.000000000014892    0.0    0.00     -17.145163158136     -17.145163158136     -17.145163158136     -17.145163158121   0.0000   0.0000   0.0000   0.0000
    832    0.000000000014478    0.0    0.00     -17.145163159070     -17.145163159070     -17.145163159070     -17.145163159055   0.0000   0.0000   0.0000   0.0000
    833    0.000000000014076    0.0    0.00     -17.145163159080     -17.145163159080     -17.145163159080     -17.145163159066   0.0000   0.0000   0.0000   0.0000
    834    0.000000000013685    0.0    0.00     -17.145163158032     -17.145163158032     -17.145163158032     -17.145163158018   0.0000   0.0000   0.0000   0.0000
    835    0.000000000013305    0.0    0.00     -17.145163159040     -17.145163159040     -17.145163159040     -17.145163159027   0.0000   0.0000   0.0000   0.0000
    836    0.000000000012936    0.0    0.00     -17.145163159052     -17.145163159052     -17.145163159052     -17.145163159039   0.0000   0.0000   0.0000   0.0000
    837    0.000000000012577    0.0    0.00     -17.145163157977     -17.145163157977     -17.145163157977     -17.145163157964   0.0000   0.0000   0.0000   0.0000
    838    0.000000000012228    0.0    0.00     -17.145163159037     -17.145163159037     -17.145163159037     -17.145163159025   0.0000   0.0000   0.0000   0.0000
    839    0.000000000011889    0.0    0.00     -17.145163159051     -17.145163159051     -17.145163159051     -17.145163159039   0.0000   0.0000   0.0000   0.0000
    840    0.000000000011560    0.0    0.00     -17.145163157940     -17.145163157940     -17.145163157940     -17.145163157929   0.0000   0.0000   0.0000   0.0000
    841    0.000000000011240    0.0    0.00     -17.145163159034     -17.145163159034     -17.145163159034     -17.145163159023   0.0000   0.0000   0.0000   0.0000
    842    0.000000000010929    0.0    0.00     -17.145163159049     -17.145163159049     -17.145163159049     -17.145163159038   0.0000   0.0000   0.0000   0.0000
    843    0.000000000010626    0.0    0.00     -17.145163157919     -17.145163157919     -17.145163157919     -17.145163157908   0.0000   0.0000   0.0000   0.0000
    844    0.000000000010332    0.0    0.00     -17.145163159032     -17.145163159032     -17.145163159032     -17.145163159022   0.0000   0.0000   0.0000   0.0000
    845    0.000000000010046    0.0    0.00     -17.145163159047     -17.145163159047     -17.145163159047     -17.145163159037   0.0000   0.0000   0.0000   0.0000
    846    0.000000000009769    0.0    0.00     -17.145163157908     -17.145163157908     -17.145163157908     -17.145163157898   0.0000   0.0000   0.0000   0.0000
    847    0.000000000009499    0.0    0.00     -17.145163159030     -17.145163159030     -17.145163159030     -17.145163159020   0.0000   0.0000   0.0000   0.0000
    848    0.000000000009236    0.0    0.00     -17.145163159045     -17.145163159045     -17.145163159045     -17.145163159036   0.0000   0.0000   0.0000   0.0000

   MAIN:          EKINC   (thr)          DETOT   (thr)       MAXFORCE   (thr)
   MAIN:   0.923636D-11  0.1D-10  0.152127D-10  0.1D-08  0.000000D+00  0.1D+11
   MAIN: convergence achieved for system relaxation

 * Physical Quantities at step:   849


                total energy =      -17.14516315799 Hartree a.u.
              kinetic energy =        7.73903 Hartree a.u.
        electrostatic energy =      -23.20884 Hartree a.u.
                         esr =        0.00133 Hartree a.u.
                       eself =       30.31961 Hartree a.u.
      pseudopotential energy =       -0.91715 Hartree a.u.
  n-l pseudopotential energy =        3.45882 Hartree a.u.
 exchange-correlation energy =       -4.20251 Hartree a.u.
           average potential =        0.00000 Hartree a.u.


     electrostatic embedding =       -0.01725 Hartree a.u.
           cavitation energy =        0.00557 Hartree a.u.
                   PV energy =       -0.00282 Hartree a.u.

   Eigenvalues (eV), kp =   1 , spin =  1

  -24.62  -12.39   -8.83   -6.86


   CELL_PARAMETERS
   20.00000000    0.00000000    0.00000000
    0.00000000   20.00000000    0.00000000
    0.00000000    0.00000000   20.00000000

   System Density [g/cm^3] :              0.0252137250


   System Volume [A.U.^3] :           8000.0000000000


   Center of mass square displacement (a.u.):   0.000000

   ATOMIC_POSITIONS
   O       0.11790000000000E+02     0.12050000000000E+02     0.11500000000000E+02
   H       0.13450000000000E+02     0.11220000000000E+02     0.11500000000000E+02
   H       0.10560000000000E+02     0.10660000000000E+02     0.11500000000000E+02

   ATOMIC_VELOCITIES
   O       0.00000000000000E+00     0.00000000000000E+00     0.00000000000000E+00
   H       0.00000000000000E+00     0.00000000000000E+00     0.00000000000000E+00
   H       0.00000000000000E+00     0.00000000000000E+00     0.00000000000000E+00

   Forces acting on atoms (au):
   O       0.11254749201503E-02    -0.60796648616459E-02     0.16656081603113E-05
   H      -0.51783739310558E-02     0.21627596609035E-02     0.22088340236014E-06
   H       0.40235995874798E-02     0.39751724686774E-02     0.22030979092549E-06



   Partial temperatures (for each ionic specie) 
   Species  Temp (K)   Mean Square Displacement (a.u.)
        1   0.00E+00     0.0000E+00
        2   0.00E+00     0.0000E+00
    849    0.000000000008982    0.0    0.00     -17.145163157990     -17.145163157990     -17.145163157990     -17.145163157981   0.0000   0.0000   0.0000   0.0000

     restart      :      0.48s CPU      0.62s WALL (       9 calls)


   Averaged Physical Quantities
                      accumulated      this run
   ekinc         :        0.15650       0.15650 (AU)
   ekin          :        7.55757       7.55757 (AU)
   epot          :      -27.05214     -27.05214 (AU)
   total energy  :      -16.18293     -16.18293 (AU)
   temperature   :        0.00000       0.00000 (K )
   enthalpy      :      -16.18293     -16.18293 (AU)
   econs         :      -16.18293     -16.18293 (AU)
   pressure      :        0.00000       0.00000 (Gpa)
   volume        :     8000.00000    8000.00000 (AU)



     Called by MAIN_LOOP:
     initialize   :      3.96s CPU      4.23s WALL (       1 calls)
     main_loop    :   2625.16s CPU   2806.91s WALL (     849 calls)
     cpr_total    :   2625.66s CPU   2807.55s WALL (       1 calls)

     Called by INIT_RUN:

     Called by CPR:
     cpr_md       :   2625.66s CPU   2807.54s WALL (     849 calls)
     move_electro :   2181.06s CPU   2362.70s WALL (     849 calls)

     Called by move_electrons:
     rhoofr       :     49.78s CPU     49.87s WALL (     850 calls)
     vofrho       :   2109.83s CPU   2291.39s WALL (     850 calls)
     dforce       :     11.79s CPU     11.86s WALL (    1700 calls)
     calphi       :      0.27s CPU      0.27s WALL (     850 calls)
     newd         :      8.99s CPU      9.07s WALL (     850 calls)
     nlfl         :      0.00s CPU      0.00s WALL (      86 calls)

     Called by ortho:
     ortho_iter   :      0.01s CPU      0.01s WALL (     850 calls)
     rsg          :      0.03s CPU      0.03s WALL (     850 calls)
     rhoset       :      0.06s CPU      0.06s WALL (     850 calls)
     sigset       :      0.04s CPU      0.04s WALL (     850 calls)
     tauset       :      0.04s CPU      0.04s WALL (     850 calls)
     ortho        :      0.57s CPU      0.57s WALL (     850 calls)
     updatc       :      0.10s CPU      0.10s WALL (     850 calls)

     Small boxes:
     rhov         :     19.91s CPU     19.94s WALL (     850 calls)
     fftb         :      6.83s CPU      6.89s WALL (   39026 calls)

     Low-level routines:
     prefor       :      0.24s CPU      0.24s WALL (     850 calls)
     nlfq         :      0.11s CPU      0.11s WALL (      86 calls)
     nlsm1        :      0.00s CPU      0.00s WALL (     851 calls)
     nlsm2        :      0.11s CPU      0.11s WALL (      86 calls)
     nlsm1us      :      0.24s CPU      0.24s WALL (    1700 calls)
     fft          :    125.75s CPU    128.93s WALL (    7659 calls)
     ffts         :      4.84s CPU      4.86s WALL (    1700 calls)
     fftw         :     14.44s CPU     14.50s WALL (    5100 calls)
     betagx       :      0.76s CPU      0.76s WALL (       1 calls)
     qradx        :      0.72s CPU      0.72s WALL (       1 calls)
     gram         :      0.00s CPU      0.00s WALL (       1 calls)
     nlinit       :      1.68s CPU      1.68s WALL (       1 calls)
     init_dim     :      0.10s CPU      0.10s WALL (       1 calls)
     newnlinit    :      0.00s CPU      0.00s WALL (       1 calls)
     from_scratch :      2.02s CPU      2.17s WALL (       1 calls)
     strucf       :      0.00s CPU      0.00s WALL (       1 calls)
     calbec       :      0.00s CPU      0.00s WALL (     851 calls)
     exch_corr    :    283.01s CPU    319.74s WALL (     850 calls)

     Environ routines


     CP           :  43m49.68s CPU  46m51.84s WALL


   This run was terminated on:   9: 2:54   3May2022            

=------------------------------------------------------------------------------=
   JOB DONE.
=------------------------------------------------------------------------------=
