
     Program CP v.6.7MaX starts on 23Sep2021 at 15:15:44 

     This program is part of the open-source Quantum ESPRESSO suite
     for quantum simulation of materials; please cite
         "P. Giannozzi et al., J. Phys.:Condens. Matter 21 395502 (2009);
         "P. Giannozzi et al., J. Phys.:Condens. Matter 29 465901 (2017);
          URL http://www.quantum-espresso.org", 
     in publications or presentations arising from this work. More details at
     http://www.quantum-espresso.org/quote

     Parallel version (MPI), running on     8 processors

     MPI processes distributed on     1 nodes
     R & G space division:  proc/nbgrp/npool/nimage =       8
     Waiting for input...
     Reading input from standard input
Warning: card K_POINTS (AUTOMATIC) ignored
Warning: card  1 1 1 0 0 0 ignored

   Job Title: MD Simulation


   Atomic Pseudopotentials Parameters
   ----------------------------------

   Reading pseudopotential for specie #  1 from file :
   /home/simplogic86/Work/QE1/pseudo/H.pbe-rrkjus.UPF
   file type is xml

   Reading pseudopotential for specie #  2 from file :
   /home/simplogic86/Work/QE1/pseudo/O.pbe-rrkjus.UPF
   file type is xml
     file H.pbe-rrkjus.UPF: wavefunction(s)  1S renormalized
     file O.pbe-rrkjus.UPF: wavefunction(s)  2S renormalized


   Main Simulation Parameters (from input)
   ---------------------------------------

     Reading input from environ.in

     ================================================================================

     Reading ENVIRON namelist

     Skipping BOUNDARY namelist

     Checking boundary derivatives
     derivatives               = chain          ! SCCS default

     Setting up vacuum environment (solvent mode = electronic)
     env_static_permittivity   = 1.D0           
     env_optical_permittivity  = 1.D0           
     env_surface_tension       = 0.D0           
     env_pressure              = 0.D0           

     Skipping ELECTROSTATIC namelist

     Setting up electrostatic problem
     problem                   = poisson        
     solver                    = direct         

     Checking PBC correction
     pbc_correction            = none           ! default

     ================================================================================
 
   Restart Mode       =      -1   from_scratch   
   Number of MD Steps =    2000
   Print out every           10 MD Steps
   Reads from unit    =      50
   Writes to unit     =      50
   MD Simulation time step            =       1.00
   Electronic fictitious mass (emass) =     400.00
   emass cut-off                      =       2.50

   Simulation Cell Parameters (from input)
   external pressure       =            0.00 [KBar]
   wmass (calculated)      =         2493.41 [AU]
   ibrav =    1
   alat  =    20.00000000
   a1    =    20.00000000    0.00000000    0.00000000
   a2    =     0.00000000   20.00000000    0.00000000
   a3    =     0.00000000    0.00000000   20.00000000
 
   b1    =     0.05000000    0.00000000    0.00000000
   b2    =     0.00000000    0.05000000    0.00000000
   b3    =     0.00000000    0.00000000    0.05000000
   omega =    8000.00000000

   Energy Cut-offs
   ---------------
   Ecutwfc =   30.0 Ry,      Ecutrho =  300.0 Ry,      Ecuts =  120.0 Ry
   Gcutwfc =   17.4     ,    Gcutrho =   55.1          Gcuts =   34.9
   NOTA BENE: refg, mmx =   0.050000  7200
   Eigenvalues calculated without the kinetic term contribution
   Orthog. with lagrange multipliers : eps =   0.10E-08,  max = 300
   verlet algorithm for electron dynamics
   with friction frice =  0.0500 , grease =  1.0000
   Electron dynamics : the temperature is not controlled
   initial random displacement of el. coordinates with  amplitude=  0.020000

   Electronic states
   -----------------
   Number of Electrons=     8, of States =     4
   Occupation numbers :
   2.00 2.00 2.00 2.00


   Exchange and correlations functionals
   -------------------------------------
     Exchange-correlation= SLA  PW   PBE  PBE
                           (   1   4   3   4   0   0   0)


   Ions Simulation Parameters
   --------------------------
   Ions are not allowed to move
   Ionic position (from input)
   sorted by specie, and converted to real a.u. coordinates
   Species   1 atoms =    2 mass =      1822.89 (a.u.),         1.00 (amu) rcmax =   0.50 (a.u.)
       13.450000    11.220000    11.500000
       10.560000    10.660000    11.500000
   Species   2 atoms =    1 mass =     29166.22 (a.u.),        16.00 (amu) rcmax =   0.50 (a.u.)
       11.790000    12.050000    11.500000
   Ionic position read from input file


   Cell Dynamics Parameters (from STDIN)
   -------------------------------------
   Starting cell generated from CELLDM
   Constant VOLUME Molecular dynamics
   cell parameters are not allowed to move
 

     Environ Module
     ==============

     Please cite
         O. Andreussi, I. Dabo and N. Marzari, J. Chem. Phys. 136, 064102 (2012)         
     in publications or presentations arising from this work.

     compensation onset threshold      =               0.1000E+00



   Verbosity: iverbosity =  0



   Simulation dimensions initialization
   ------------------------------------

   unit vectors of full simulation cell
   in real space:                         in reciprocal space (units 2pi/alat):
   1    20.0000    0.0000    0.0000              1.0000    0.0000    0.0000
   2     0.0000   20.0000    0.0000              0.0000    1.0000    0.0000
   3     0.0000    0.0000   20.0000              0.0000    0.0000    1.0000
 
     Parallelization info
     --------------------
     sticks:   dense  smooth     PW     G-vecs:    dense   smooth      PW
     Min        1192     475    118                87680    22187    2762
     Max        1194     478    120                87686    22192    2772
     Sum        9549    3809    949               701475   177509   22119
 
 
   Real Mesh
   ---------
   Global Dimensions   Local  Dimensions   Processor Grid
   .X.   .Y.   .Z.     .X.   .Y.   .Z.     .X.   .Y.   .Z.
   120   120   120     120   120    15       1     1     8
   Array leading dimensions ( nr1x, nr2x, nr3x )   =    120   120   120
   Local number of cell to store the grid ( nrxx ) =     216000
   Number of x-y planes for each processors: 
  | 120,  15  | 120,  15  | 120,  15  | 120,  15  | 120,  15
  | 120,  15  | 120,  15  | 120,  15  |
 
   Smooth Real Mesh
   ----------------
   Global Dimensions   Local  Dimensions   Processor Grid
   .X.   .Y.   .Z.     .X.   .Y.   .Z.     .X.   .Y.   .Z.
    72    72    72      72    72     9       1     1     8
   Array leading dimensions ( nr1x, nr2x, nr3x )   =     72    72    72
   Local number of cell to store the grid ( nrxx ) =      46656
   Number of x-y planes for each processors: 
  |  72,   9  |  72,   9  |  72,   9  |  72,   9  |  72,   9
  |  72,   9  |  72,   9  |  72,   9  |
 
   Small Box Real Mesh
   -------------------
   Global Dimensions   Local  Dimensions   Processor Grid
   .X.   .Y.   .Z.     .X.   .Y.   .Z.     .X.   .Y.   .Z.
    24    24    24      24    24    24       1     1     1
   Array leading dimensions ( nr1x, nr2x, nr3x )   =     24    24    24
   Local number of cell to store the grid ( nrxx ) =      13824
 
   unit vectors of box grid cell
   in real space:                         in reciprocal space:
       4.0000    0.0000    0.0000              1.0000    0.0000    0.0000
       0.0000    4.0000    0.0000              0.0000    1.0000    0.0000
       0.0000    0.0000    4.0000              0.0000    0.0000    1.0000
 
   Reciprocal Space Mesh
   ---------------------
   Large Mesh
     Global(ngm_g)    MinLocal       MaxLocal      Average
         350738          43840          43843       43842.25
   Smooth Mesh
     Global(ngms_g)   MinLocal       MaxLocal      Average
          88755          11094          11096       11094.38
   Wave function Mesh
     Global(ngw_g)    MinLocal       MaxLocal      Average
          11060           1381           1386        1382.50

   Small box Mesh
   ngb =         2788 not distributed to processors


   System geometry initialization
   ------------------------------
   ibrav =    1       cell parameters read from input file
 
   unit vectors of box grid cell
   in real space:                         in reciprocal space:
       4.0000    0.0000    0.0000              1.0000    0.0000    0.0000
       0.0000    4.0000    0.0000              0.0000    1.0000    0.0000
       0.0000    0.0000    4.0000              0.0000    0.0000    1.0000

   Matrix Multiplication Performances
   ortho mmul, time for parallel driver      =   0.00001 with    1 procs

   Constraints matrixes will be distributed block like on
   ortho sub-group =    1*   1 procs



   Pseudopotentials initialization
   -------------------------------
is, nh(is), ngb, kkbeta, lmaxq =     1    2 2788  629    3
 
                        qqq 
   0.0186   0.0152
   0.0152   0.0125
 
is, nh(is), ngb, kkbeta, lmaxq =     2    8 2788  865    3
 
                        qqq 
  -0.1022   0.5410   0.0000   0.0000
   0.5410  -2.5883   0.0000   0.0000
   0.0000   0.0000   0.2297   0.2861
   0.0000   0.0000   0.2861   0.3565
 


   Common initialization

   Specie:     1
   1  indv=  1   ang. mom=  0
   2  indv=  2   ang. mom=  0
 
                        dion 
  -0.0211  -0.0150
  -0.0150  -0.0104

   Specie:     2
   1  indv=  1   ang. mom=  0
   2  indv=  2   ang. mom=  0
   3  indv=  3   ang. mom=  1
   4  indv=  3   ang. mom=  1
   5  indv=  3   ang. mom=  1
   6  indv=  4   ang. mom=  1
   7  indv=  4   ang. mom=  1
   8  indv=  4   ang. mom=  1
 
                        dion 
   0.4798  -1.3236   0.0000   0.0000
  -1.3236   2.2757   0.0000   0.0000
   0.0000   0.0000   0.6278   0.8512
   0.0000   0.0000   0.8512   1.1500

   Cell parameters from input file are used in electron mass preconditioning
   init_tpiba2=    0.09869604
 
   Short Legend and Physical Units in the Output
   ---------------------------------------------
   NFI    [int]          - step index
   EKINC  [HARTREE A.U.] - kinetic energy of the fictitious electronic dynamics
   TEMPH  [K]            - Temperature of the fictitious cell dynamics
   TEMP   [K]            - Ionic temperature
   ETOT   [HARTREE A.U.] - Scf total energy (Kohn-Sham hamiltonian)
   ENTHAL [HARTREE A.U.] - Enthalpy ( ETOT + P * V )
   ECONS  [HARTREE A.U.] - Enthalpy + kinetic energy of ions and cell
   ECONT  [HARTREE A.U.] - Constant of motion for the CP lagrangian
 


   Wave Initialization: random initial wave-functions
   Occupation number from init
   nbnd =     4
    2.00 2.00 2.00 2.00

   formf: eself=    30.31961
   formf:     vps(g=0)=  -0.0000601     rhops(g=0)=  -0.0001242
   formf:     vps(g=0)=  -0.0000598     rhops(g=0)=  -0.0001235
   formf:     vps(g=0)=  -0.0000598     rhops(g=0)=  -0.0001235
   formf:     vps(g=0)=  -0.0000588     rhops(g=0)=  -0.0001212
   formf:     vps(g=0)=  -0.0000588     rhops(g=0)=  -0.0001212
   formf: sum_g vps(g)=  -0.0888832 sum_g rhops(g)=  -0.7171034
   formf:     vps(g=0)=  -0.0001248     rhops(g=0)=  -0.0007454
   formf:     vps(g=0)=  -0.0001235     rhops(g=0)=  -0.0007408
   formf:     vps(g=0)=  -0.0001235     rhops(g=0)=  -0.0007408
   formf:     vps(g=0)=  -0.0001195     rhops(g=0)=  -0.0007272
   formf:     vps(g=0)=  -0.0001195     rhops(g=0)=  -0.0007272
   formf: sum_g vps(g)=   0.9003747 sum_g rhops(g)=  -4.3026204
   Delta V(G=0):   0.000785Ry,    0.021372eV

   from rhoofr: total integrated electronic density
   in g-space =      8.000000   in r-space =     8.000000
 
  nfi     ekinc              temph  tempp     etot                 enthal               econs                econt              vnhh    xnhh0   vnhp    xnhp0
      1    0.041857379017684    0.0    0.00       9.389245797667       9.389245797667       9.389245797667       9.431103176685   0.0000   0.0000   0.0000   0.0000
      2    0.130427467092388    0.0    0.00       9.283305825724       9.283305825724       9.283305825724       9.413733292816   0.0000   0.0000   0.0000   0.0000
      3    0.259569239840813    0.0    0.00       9.114970747838       9.114970747838       9.114970747838       9.374539987678   0.0000   0.0000   0.0000   0.0000
      4    0.417384305419390    0.0    0.00       8.889246616048       8.889246616048       8.889246616048       9.306630921468   0.0000   0.0000   0.0000   0.0000
      5    0.594873767645340    0.0    0.00       8.610325258271       8.610325258271       8.610325258271       9.205199025916   0.0000   0.0000   0.0000   0.0000
      6    0.785352289132312    0.0    0.00       8.281648985724       8.281648985724       8.281648985724       9.067001274856   0.0000   0.0000   0.0000   0.0000
      7    0.983982463458541    0.0    0.00       7.905959805046       7.905959805046       7.905959805046       8.889942268505   0.0000   0.0000   0.0000   0.0000
      8    1.187395648579847    0.0    0.00       7.485346344602       7.485346344602       7.485346344602       8.672741993181   0.0000   0.0000   0.0000   0.0000
      9    1.393370975001015    0.0    0.00       7.021302030949       7.021302030949       7.021302030949       8.414673005950   0.0000   0.0000   0.0000   0.0000
     10    1.600548798561127    0.0    0.00       6.514809548957       6.514809548957       6.514809548957       8.115358347518   0.0000   0.0000   0.0000   0.0000
     11    1.808159273214363    0.0    0.00       5.966465529992       5.966465529992       5.966465529992       7.774624803207   0.0000   0.0000   0.0000   0.0000
     12    2.015751838446690    0.0    0.00       5.376658972438       5.376658972438       5.376658972438       7.392410810884   0.0000   0.0000   0.0000   0.0000
     13    2.222917724323938    0.0    0.00       4.745811850854       4.745811850854       4.745811850854       6.968729575178   0.0000   0.0000   0.0000   0.0000
     14    2.429005796111657    0.0    0.00       4.074683800395       4.074683800395       4.074683800395       6.503689596507   0.0000   0.0000   0.0000   0.0000
     15    2.632842539952794    0.0    0.00       3.364731075352       3.364731075352       3.364731075352       5.997573615305   0.0000   0.0000   0.0000   0.0000
     16    2.832480981184674    0.0    0.00       2.618492277735       2.618492277735       2.618492277735       5.450973258919   0.0000   0.0000   0.0000   0.0000
     17    3.025016775462137    0.0    0.00       1.839952907180       1.839952907180       1.839952907180       4.864969682643   0.0000   0.0000   0.0000   0.0000
     18    3.206518260101368    0.0    0.00       1.034823535991       1.034823535991       1.034823535991       4.241341796092   0.0000   0.0000   0.0000   0.0000
     19    3.372117716923559    0.0    0.00       0.210655076081       0.210655076081       0.210655076081       3.582772793004   0.0000   0.0000   0.0000   0.0000
     20    3.516296477966264    0.0    0.00      -0.623279876696      -0.623279876696      -0.623279876696       2.893016601271   0.0000   0.0000   0.0000   0.0000
     21    3.633363535538002    0.0    0.00      -1.456380529901      -1.456380529901      -1.456380529901       2.176983005637   0.0000   0.0000   0.0000   0.0000
     22    3.718082837826664    0.0    0.00      -2.277377550430      -2.277377550430      -2.277377550430       1.440705287397   0.0000   0.0000   0.0000   0.0000
     23    3.766359187217838    0.0    0.00      -3.075190159434      -3.075190159434      -3.075190159434       0.691169027784   0.0000   0.0000   0.0000   0.0000
     24    3.775862910759549    0.0    0.00      -3.839857765260      -3.839857765260      -3.839857765260      -0.063994854500   0.0000   0.0000   0.0000   0.0000
     25    3.746464462981972    0.0    0.00      -4.563390781578      -4.563390781578      -4.563390781578      -0.816926318596   0.0000   0.0000   0.0000   0.0000
     26    3.680379037103959    0.0    0.00      -5.240384352649      -5.240384352649      -5.240384352649      -1.560005315545   0.0000   0.0000   0.0000   0.0000
     27    3.581984262158167    0.0    0.00      -5.868295429646      -5.868295429646      -5.868295429646      -2.286311167487   0.0000   0.0000   0.0000   0.0000
     28    3.457343169260122    0.0    0.00      -6.447351123481      -6.447351123481      -6.447351123481      -2.990007954221   0.0000   0.0000   0.0000   0.0000
     29    3.313521890537732    0.0    0.00      -6.980128747057      -6.980128747057      -6.980128747057      -3.666606856520   0.0000   0.0000   0.0000   0.0000
     30    3.157824132303456    0.0    0.00      -7.470903119158      -7.470903119158      -7.470903119158      -4.313078986854   0.0000   0.0000   0.0000   0.0000
     31    2.997065400814541    0.0    0.00      -7.924882839086      -7.924882839086      -7.924882839086      -4.927817438271   0.0000   0.0000   0.0000   0.0000
     32    2.836988237210675    0.0    0.00      -8.347455236609      -8.347455236609      -8.347455236609      -5.510466999399   0.0000   0.0000   0.0000   0.0000
     33    2.681890631103805    0.0    0.00      -8.743551855994      -8.743551855994      -8.743551855994      -6.061661224890   0.0000   0.0000   0.0000   0.0000
     34    2.534494688605410    0.0    0.00      -9.117208649121      -9.117208649121      -9.117208649121      -6.582713960516   0.0000   0.0000   0.0000   0.0000
     35    2.396034720088064    0.0    0.00      -9.471345714371      -9.471345714371      -9.471345714371      -7.075310994283   0.0000   0.0000   0.0000   0.0000
     36    2.266513058850811    0.0    0.00      -9.807752694458      -9.807752694458      -9.807752694458      -7.541239635607   0.0000   0.0000   0.0000   0.0000
     37    2.145056873725897    0.0    0.00     -10.127239844961     -10.127239844961     -10.127239844961      -7.982182971235   0.0000   0.0000   0.0000   0.0000
     38    2.030305406147003    0.0    0.00     -10.429895366205     -10.429895366205     -10.429895366205      -8.399589960058   0.0000   0.0000   0.0000   0.0000
     39    1.920766483471402    0.0    0.00     -10.715386461753     -10.715386461753     -10.715386461753      -8.794619978282   0.0000   0.0000   0.0000   0.0000
     40    1.815099659850259    0.0    0.00     -10.983250050543     -10.983250050543     -10.983250050543      -9.168150390692   0.0000   0.0000   0.0000   0.0000
     41    1.712303571221934    0.0    0.00     -11.233133193531     -11.233133193531     -11.233133193531      -9.520829622309   0.0000   0.0000   0.0000   0.0000
     42    1.611805047242849    0.0    0.00     -11.464960968785     -11.464960968785     -11.464960968785      -9.853155921542   0.0000   0.0000   0.0000   0.0000
     43    1.513463534499834    0.0    0.00     -11.679027400280     -11.679027400280     -11.679027400280     -10.165563865781   0.0000   0.0000   0.0000   0.0000
     44    1.417513328746459    0.0    0.00     -11.876017705305     -11.876017705305     -11.876017705305     -10.458504376558   0.0000   0.0000   0.0000   0.0000
     45    1.324468798501909    0.0    0.00     -12.056977553532     -12.056977553532     -12.056977553532     -10.732508755030   0.0000   0.0000   0.0000   0.0000
     46    1.235015347429409    0.0    0.00     -12.223247490763     -12.223247490763     -12.223247490763     -10.988232143334   0.0000   0.0000   0.0000   0.0000
     47    1.149903807098846    0.0    0.00     -12.376379398640     -12.376379398640     -12.376379398640     -11.226475591541   0.0000   0.0000   0.0000   0.0000
     48    1.069860097892036    0.0    0.00     -12.518048900038     -12.518048900038     -12.518048900038     -11.448188802146   0.0000   0.0000   0.0000   0.0000
     49    0.995516314210894    0.0    0.00     -12.649973510777     -12.649973510777     -12.649973510777     -11.654457196566   0.0000   0.0000   0.0000   0.0000
     50    0.927364742872287    0.0    0.00     -12.773842647660     -12.773842647660     -12.773842647660     -11.846477904788   0.0000   0.0000   0.0000   0.0000
     51    0.865732999591753    0.0    0.00     -12.891261956447     -12.891261956447     -12.891261956447     -12.025528956855   0.0000   0.0000   0.0000   0.0000
     52    0.810776564572636    0.0    0.00     -13.003712005524     -13.003712005524     -13.003712005524     -12.192935440951   0.0000   0.0000   0.0000   0.0000
     53    0.762484440530656    0.0    0.00     -13.112520055025     -13.112520055025     -13.112520055025     -12.350035614494   0.0000   0.0000   0.0000   0.0000
     54    0.720693823293480    0.0    0.00     -13.218842965281     -13.218842965281     -13.218842965281     -12.498149141987   0.0000   0.0000   0.0000   0.0000
     55    0.685110244823593    0.0    0.00     -13.323659156193     -13.323659156193     -13.323659156193     -12.638548911369   0.0000   0.0000   0.0000   0.0000
     56    0.655330451869023    0.0    0.00     -13.427767510933     -13.427767510933     -13.427767510933     -12.772437059064   0.0000   0.0000   0.0000   0.0000
     57    0.630866004588446    0.0    0.00     -13.531791800203     -13.531791800203     -13.531791800203     -12.900925795615   0.0000   0.0000   0.0000   0.0000
     58    0.611166214131592    0.0    0.00     -13.636188919324     -13.636188919324     -13.636188919324     -13.025022705193   0.0000   0.0000   0.0000   0.0000
     59    0.595639607909674    0.0    0.00     -13.741260215319     -13.741260215319     -13.741260215319     -13.145620607409   0.0000   0.0000   0.0000   0.0000
     60    0.583673450177251    0.0    0.00     -13.847164929846     -13.847164929846     -13.847164929846     -13.263491479669   0.0000   0.0000   0.0000   0.0000
     61    0.574651115998933    0.0    0.00     -13.953935112264     -13.953935112264     -13.953935112264     -13.379283996265   0.0000   0.0000   0.0000   0.0000
     62    0.567967280769993    0.0    0.00     -14.061491630425     -14.061491630425     -14.061491630425     -13.493524349655   0.0000   0.0000   0.0000   0.0000
     63    0.563040977265033    0.0    0.00     -14.169660870953     -14.169660870953     -14.169660870953     -13.606619893688   0.0000   0.0000   0.0000   0.0000
     64    0.559326611123519    0.0    0.00     -14.278191820640     -14.278191820640     -14.278191820640     -13.718865209516   0.0000   0.0000   0.0000   0.0000
     65    0.556323001845904    0.0    0.00     -14.386773089121     -14.386773089121     -14.386773089121     -13.830450087275   0.0000   0.0000   0.0000   0.0000
     66    0.553580515324735    0.0    0.00     -14.495049788888     -14.495049788888     -14.495049788888     -13.941469273563   0.0000   0.0000   0.0000   0.0000
     67    0.550706341819830    0.0    0.00     -14.602639629127     -14.602639629127     -14.602639629127     -14.051933287308   0.0000   0.0000   0.0000   0.0000
     68    0.547367966358306    0.0    0.00     -14.709148207619     -14.709148207619     -14.709148207619     -14.161780241261   0.0000   0.0000   0.0000   0.0000
     69    0.543294879725549    0.0    0.00     -14.814182959301     -14.814182959301     -14.814182959301     -14.270888079575   0.0000   0.0000   0.0000   0.0000
     70    0.538278593896068    0.0    0.00     -14.917365653290     -14.917365653290     -14.917365653290     -14.379087059394   0.0000   0.0000   0.0000   0.0000
     71    0.532171054962957    0.0    0.00     -15.018343095493     -15.018343095493     -15.018343095493     -14.486172040530   0.0000   0.0000   0.0000   0.0000
     72    0.524881597045481    0.0    0.00     -15.116795818626     -15.116795818626     -15.116795818626     -14.591914221580   0.0000   0.0000   0.0000   0.0000
     73    0.516372592883643    0.0    0.00     -15.212444928791     -15.212444928791     -15.212444928791     -14.696072335908   0.0000   0.0000   0.0000   0.0000
     74    0.506653998628176    0.0    0.00     -15.305056565861     -15.305056565861     -15.305056565861     -14.798402567233   0.0000   0.0000   0.0000   0.0000
     75    0.495777047330601    0.0    0.00     -15.394444582763     -15.394444582763     -15.394444582763     -14.898667535432   0.0000   0.0000   0.0000   0.0000
     76    0.483827352679040    0.0    0.00     -15.480471214755     -15.480471214755     -15.480471214755     -14.996643862076   0.0000   0.0000   0.0000   0.0000
     77    0.470917687141092    0.0    0.00     -15.563045887049     -15.563045887049     -15.563045887049     -15.092128199908   0.0000   0.0000   0.0000   0.0000
     78    0.457180736635667    0.0    0.00     -15.642122754559     -15.642122754559     -15.642122754559     -15.184942017924   0.0000   0.0000   0.0000   0.0000
     79    0.442762109398188    0.0    0.00     -15.717696854814     -15.717696854814     -15.717696854814     -15.274934745416   0.0000   0.0000   0.0000   0.0000
     80    0.427813792252230    0.0    0.00     -15.789799588616     -15.789799588616     -15.789799588616     -15.361985796364   0.0000   0.0000   0.0000   0.0000
     81    0.412488252968705    0.0    0.00     -15.858493352036     -15.858493352036     -15.858493352036     -15.446005099067   0.0000   0.0000   0.0000   0.0000
     82    0.396933388972120    0.0    0.00     -15.923866025247     -15.923866025247     -15.923866025247     -15.526932636275   0.0000   0.0000   0.0000   0.0000
     83    0.381288380452742    0.0    0.00     -15.986025525185     -15.986025525185     -15.986025525185     -15.604737144733   0.0000   0.0000   0.0000   0.0000
     84    0.365680454021755    0.0    0.00     -16.045094465911     -16.045094465911     -16.045094465911     -15.679414011889   0.0000   0.0000   0.0000   0.0000
     85    0.350222599466035    0.0    0.00     -16.101205181033     -16.101205181033     -16.101205181033     -15.750982581567   0.0000   0.0000   0.0000   0.0000
     86    0.335012199831864    0.0    0.00     -16.154495360531     -16.154495360531     -16.154495360531     -15.819483160699   0.0000   0.0000   0.0000   0.0000
     87    0.320130452786174    0.0    0.00     -16.205104302743     -16.205104302743     -16.205104302743     -15.884973849957   0.0000   0.0000   0.0000   0.0000
     88    0.305642504664800    0.0    0.00     -16.253169936227     -16.253169936227     -16.253169936227     -15.947527431562   0.0000   0.0000   0.0000   0.0000
     89    0.291598170074833    0.0    0.00     -16.298826224211     -16.298826224211     -16.298826224211     -16.007228054136   0.0000   0.0000   0.0000   0.0000
     90    0.278033080430066    0.0    0.00     -16.342201490682     -16.342201490682     -16.342201490682     -16.064168410252   0.0000   0.0000   0.0000   0.0000
     91    0.264970172166469    0.0    0.00     -16.383416959195     -16.383416959195     -16.383416959195     -16.118446787028   0.0000   0.0000   0.0000   0.0000
     92    0.252421355532906    0.0    0.00     -16.422586290415     -16.422586290415     -16.422586290415     -16.170164934882   0.0000   0.0000   0.0000   0.0000
     93    0.240389261523825    0.0    0.00     -16.459815254160     -16.459815254160     -16.459815254160     -16.219425992636   0.0000   0.0000   0.0000   0.0000
     94    0.228868998021236    0.0    0.00     -16.495201838100     -16.495201838100     -16.495201838100     -16.266332840079   0.0000   0.0000   0.0000   0.0000
     95    0.217849828158000    0.0    0.00     -16.528836508855     -16.528836508855     -16.528836508855     -16.310986680697   0.0000   0.0000   0.0000   0.0000
     96    0.207316720688661    0.0    0.00     -16.560802946138     -16.560802946138     -16.560802946138     -16.353486225450   0.0000   0.0000   0.0000   0.0000
     97    0.197251729946384    0.0    0.00     -16.591178538087     -16.591178538087     -16.591178538087     -16.393926808141   0.0000   0.0000   0.0000   0.0000
     98    0.187635185866883    0.0    0.00     -16.620035210676     -16.620035210676     -16.620035210676     -16.432400024809   0.0000   0.0000   0.0000   0.0000
     99    0.178446679314429    0.0    0.00     -16.647440146149     -16.647440146149     -16.647440146149     -16.468993466835   0.0000   0.0000   0.0000   0.0000

 * Physical Quantities at step:   100

   from rhoofr: total integrated electronic density
   in g-space =      8.000000   in r-space =     8.000000


                total energy =      -16.67345646549 Hartree a.u.
              kinetic energy =        8.06666 Hartree a.u.
        electrostatic energy =      -23.46389 Hartree a.u.
                         esr =        0.00133 Hartree a.u.
                       eself =       30.31961 Hartree a.u.
      pseudopotential energy =       -0.91649 Hartree a.u.
  n-l pseudopotential energy =        3.80439 Hartree a.u.
 exchange-correlation energy =       -4.16414 Hartree a.u.
           average potential =        0.00000 Hartree a.u.



   Eigenvalues (eV), kp =   1 , spin =  1

  -27.16  -13.61   -9.21   -6.98
 
 
   CELL_PARAMETERS
   20.00000000    0.00000000    0.00000000
    0.00000000   20.00000000    0.00000000
    0.00000000    0.00000000   20.00000000

   System Density [g/cm^3] :              0.0252137250


   System Volume [A.U.^3] :           8000.0000000000


   Center of mass square displacement (a.u.):   0.000000

   ATOMIC_POSITIONS
   O       0.11790000000000E+02     0.12050000000000E+02     0.11500000000000E+02
   H       0.13450000000000E+02     0.11220000000000E+02     0.11500000000000E+02
   H       0.10560000000000E+02     0.10660000000000E+02     0.11500000000000E+02
 
   ATOMIC_VELOCITIES
   O       0.00000000000000E+00     0.00000000000000E+00     0.00000000000000E+00
   H       0.00000000000000E+00     0.00000000000000E+00     0.00000000000000E+00
   H       0.00000000000000E+00     0.00000000000000E+00     0.00000000000000E+00
 
   Forces acting on atoms (au):
   O      -0.35097940731636E-01     0.27713144731041E+00     0.15286423457580E+00
   H      -0.50148325911604E-01    -0.19613328527619E-02     0.90464760106386E-01
   H       0.20299621975905E-01     0.90075828317770E-01    -0.23935945030718E-01
 


   Partial temperatures (for each ionic specie) 
   Species  Temp (K)   Mean Square Displacement (a.u.)
        1   0.00E+00     0.0000E+00
        2   0.00E+00     0.0000E+00
 
  nfi     ekinc              temph  tempp     etot                 enthal               econs                econt              vnhh    xnhh0   vnhp    xnhp0
    100    0.169665848626562    0.0    0.00     -16.673456465487     -16.673456465487     -16.673456465487     -16.503790616861   0.0000   0.0000   0.0000   0.0000

   writing restart file (with schema): /home/simplogic86/Work/QE1/tempdir/h2o_vacuum_50.save/
     restart      :      0.01s CPU      0.09s WALL (       1 calls)
    101    0.161272973810284    0.0    0.00     -16.698143914990     -16.698143914990     -16.698143914990     -16.536870941179   0.0000   0.0000   0.0000   0.0000
    102    0.153249389260352    0.0    0.00     -16.721559475442     -16.721559475442     -16.721559475442     -16.568310086182   0.0000   0.0000   0.0000   0.0000
    103    0.145577739582113    0.0    0.00     -16.743757885204     -16.743757885204     -16.743757885204     -16.598180145622   0.0000   0.0000   0.0000   0.0000
    104    0.138242106408407    0.0    0.00     -16.764791945130     -16.764791945130     -16.764791945130     -16.626549838722   0.0000   0.0000   0.0000   0.0000
    105    0.131228030641379    0.0    0.00     -16.784712908397     -16.784712908397     -16.784712908397     -16.653484877756   0.0000   0.0000   0.0000   0.0000
    106    0.124522452446398    0.0    0.00     -16.803570713907     -16.803570713907     -16.803570713907     -16.679048261461   0.0000   0.0000   0.0000   0.0000
    107    0.118113595589392    0.0    0.00     -16.821414054401     -16.821414054401     -16.821414054401     -16.703300458812   0.0000   0.0000   0.0000   0.0000
    108    0.111990810316527    0.0    0.00     -16.838290561051     -16.838290561051     -16.838290561051     -16.726299750734   0.0000   0.0000   0.0000   0.0000
    109    0.106144390942047    0.0    0.00     -16.854246750587     -16.854246750587     -16.854246750587     -16.748102359645   0.0000   0.0000   0.0000   0.0000
    110    0.100565387247545    0.0    0.00     -16.869328009089     -16.869328009089     -16.869328009089     -16.768762621841   0.0000   0.0000   0.0000   0.0000
    111    0.095245420463652    0.0    0.00     -16.883578618694     -16.883578618694     -16.883578618694     -16.788333198230   0.0000   0.0000   0.0000   0.0000
    112    0.090176513196499    0.0    0.00     -16.897041624609     -16.897041624609     -16.897041624609     -16.806865111412   0.0000   0.0000   0.0000   0.0000
    113    0.085350941266521    0.0    0.00     -16.909758725946     -16.909758725946     -16.909758725946     -16.824407784680   0.0000   0.0000   0.0000   0.0000
    114    0.080761109134260    0.0    0.00     -16.921770269218     -16.921770269218     -16.921770269218     -16.841009160083   0.0000   0.0000   0.0000   0.0000
    115    0.076399452149968    0.0    0.00     -16.933115091298     -16.933115091298     -16.933115091298     -16.856715639148   0.0000   0.0000   0.0000   0.0000
    116    0.072258366911587    0.0    0.00     -16.943830444176     -16.943830444176     -16.943830444176     -16.871572077265   0.0000   0.0000   0.0000   0.0000
    117    0.068330162826654    0.0    0.00     -16.953951983915     -16.953951983915     -16.953951983915     -16.885621821088   0.0000   0.0000   0.0000   0.0000
    118    0.064607037764061    0.0    0.00     -16.963513685522     -16.963513685522     -16.963513685522     -16.898906647758   0.0000   0.0000   0.0000   0.0000
    119    0.061081075157020    0.0    0.00     -16.972547816837     -16.972547816837     -16.972547816837     -16.911466741680   0.0000   0.0000   0.0000   0.0000
    120    0.057744255297180    0.0    0.00     -16.981084984996     -16.981084984996     -16.981084984996     -16.923340729699   0.0000   0.0000   0.0000   0.0000
    121    0.054588479760265    0.0    0.00     -16.989154152696     -16.989154152696     -16.989154152696     -16.934565672936   0.0000   0.0000   0.0000   0.0000
    122    0.051605608216655    0.0    0.00     -16.996782529574     -16.996782529574     -16.996782529574     -16.945176921358   0.0000   0.0000   0.0000   0.0000
    123    0.048787502928825    0.0    0.00     -17.003995699979     -17.003995699979     -17.003995699979     -16.955208197050   0.0000   0.0000   0.0000   0.0000
    124    0.046126073784898    0.0    0.00     -17.010817725113     -17.010817725113     -17.010817725113     -16.964691651328   0.0000   0.0000   0.0000   0.0000
    125    0.043613327292339    0.0    0.00     -17.017271089136     -17.017271089136     -17.017271089136     -16.973657761844   0.0000   0.0000   0.0000   0.0000
    126    0.041241413992650    0.0    0.00     -17.023376873249     -17.023376873249     -17.023376873249     -16.982135459256   0.0000   0.0000   0.0000   0.0000
    127    0.039002669293806    0.0    0.00     -17.029154854797     -17.029154854797     -17.029154854797     -16.990152185503   0.0000   0.0000   0.0000   0.0000
    128    0.036889651474494    0.0    0.00     -17.034623542690     -17.034623542690     -17.034623542690     -16.997733891215   0.0000   0.0000   0.0000   0.0000
    129    0.034895180226320    0.0    0.00     -17.039800116798     -17.039800116798     -17.039800116798     -17.004904936572   0.0000   0.0000   0.0000   0.0000
    130    0.033012366275283    0.0    0.00     -17.044700746606     -17.044700746606     -17.044700746606     -17.011688380331   0.0000   0.0000   0.0000   0.0000
    131    0.031234629577711    0.0    0.00     -17.049340574990     -17.049340574990     -17.049340574990     -17.018105945412   0.0000   0.0000   0.0000   0.0000
    132    0.029555715574148    0.0    0.00     -17.053733785191     -17.053733785191     -17.053733785191     -17.024178069617   0.0000   0.0000   0.0000   0.0000
    133    0.027969705688768    0.0    0.00     -17.057893690207     -17.057893690207     -17.057893690207     -17.029923984518   0.0000   0.0000   0.0000   0.0000
    134    0.026471021155514    0.0    0.00     -17.061832818536     -17.061832818536     -17.061832818536     -17.035361797380   0.0000   0.0000   0.0000   0.0000
    135    0.025054423555996    0.0    0.00     -17.065562926565     -17.065562926565     -17.065562926565     -17.040508503009   0.0000   0.0000   0.0000   0.0000
    136    0.023715011056878    0.0    0.00     -17.069095058862     -17.069095058862     -17.069095058862     -17.045380047805   0.0000   0.0000   0.0000   0.0000
    137    0.022448207956968    0.0    0.00     -17.072439681326     -17.072439681326     -17.072439681326     -17.049991473369   0.0000   0.0000   0.0000   0.0000
    138    0.021249754201317    0.0    0.00     -17.075606529520     -17.075606529520     -17.075606529520     -17.054356775318   0.0000   0.0000   0.0000   0.0000
    139    0.020115690802201    0.0    0.00     -17.078604898235     -17.078604898235     -17.078604898235     -17.058489207433   0.0000   0.0000   0.0000   0.0000
    140    0.019042340330327    0.0    0.00     -17.081443595659     -17.081443595659     -17.081443595659     -17.062401255329   0.0000   0.0000   0.0000   0.0000
    141    0.018026288496689    0.0    0.00     -17.084130930058     -17.084130930058     -17.084130930058     -17.066104641561   0.0000   0.0000   0.0000   0.0000
    142    0.017064363686442    0.0    0.00     -17.086674876954     -17.086674876954     -17.086674876954     -17.069610513268   0.0000   0.0000   0.0000   0.0000
    143    0.016153616360291    0.0    0.00     -17.089082991009     -17.089082991009     -17.089082991009     -17.072929374648   0.0000   0.0000   0.0000   0.0000
    144    0.015291300812669    0.0    0.00     -17.091362453564     -17.091362453564     -17.091362453564     -17.076071152752   0.0000   0.0000   0.0000   0.0000
    145    0.014474856856578    0.0    0.00     -17.093520070836     -17.093520070836     -17.093520070836     -17.079045213979   0.0000   0.0000   0.0000   0.0000
    146    0.013701890069549    0.0    0.00     -17.095562398484     -17.095562398484     -17.095562398484     -17.081860508415   0.0000   0.0000   0.0000   0.0000
    147    0.012970155090026    0.0    0.00     -17.097495644530     -17.097495644530     -17.097495644530     -17.084525489440   0.0000   0.0000   0.0000   0.0000
    148    0.012277540844434    0.0    0.00     -17.099325745730     -17.099325745730     -17.099325745730     -17.087048204886   0.0000   0.0000   0.0000   0.0000
    149    0.011622056122458    0.0    0.00     -17.101058342411     -17.101058342411     -17.101058342411     -17.089436286289   0.0000   0.0000   0.0000   0.0000
    150    0.011001819425558    0.0    0.00     -17.102698722249     -17.102698722249     -17.102698722249     -17.091696902823   0.0000   0.0000   0.0000   0.0000
    151    0.010415047552979    0.0    0.00     -17.104252019434     -17.104252019434     -17.104252019434     -17.093836971881   0.0000   0.0000   0.0000   0.0000
    152    0.009860046145668    0.0    0.00     -17.105723006764     -17.105723006764     -17.105723006764     -17.095862960618   0.0000   0.0000   0.0000   0.0000
    153    0.009335201986448    0.0    0.00     -17.107116302635     -17.107116302635     -17.107116302635     -17.097781100649   0.0000   0.0000   0.0000   0.0000
    154    0.008838976399244    0.0    0.00     -17.108436200607     -17.108436200607     -17.108436200607     -17.099597224207   0.0000   0.0000   0.0000   0.0000
    155    0.008369900587247    0.0    0.00     -17.109686801850     -17.109686801850     -17.109686801850     -17.101316901263   0.0000   0.0000   0.0000   0.0000
    156    0.007926569687630    0.0    0.00     -17.110872000400     -17.110872000400     -17.110872000400     -17.102945430712   0.0000   0.0000   0.0000   0.0000
    157    0.007507640132257    0.0    0.00     -17.111995435221     -17.111995435221     -17.111995435221     -17.104487795089   0.0000   0.0000   0.0000   0.0000
    158    0.007111825894270    0.0    0.00     -17.113060601638     -17.113060601638     -17.113060601638     -17.105948775744   0.0000   0.0000   0.0000   0.0000
    159    0.006737896100256    0.0    0.00     -17.114070726825     -17.114070726825     -17.114070726825     -17.107332830725   0.0000   0.0000   0.0000   0.0000
    160    0.006384673912263    0.0    0.00     -17.115028913054     -17.115028913054     -17.115028913054     -17.108644239142   0.0000   0.0000   0.0000   0.0000
    161    0.006051034018411    0.0    0.00     -17.115938037426     -17.115938037426     -17.115938037426     -17.109887003407   0.0000   0.0000   0.0000   0.0000
    162    0.005735901442655    0.0    0.00     -17.116800840750     -17.116800840750     -17.116800840750     -17.111064939308   0.0000   0.0000   0.0000   0.0000
    163    0.005438249861433    0.0    0.00     -17.117619912614     -17.117619912614     -17.117619912614     -17.112181662752   0.0000   0.0000   0.0000   0.0000
    164    0.005157100871300    0.0    0.00     -17.118397665948     -17.118397665948     -17.118397665948     -17.113240565076   0.0000   0.0000   0.0000   0.0000
    165    0.004891524127914    0.0    0.00     -17.119136340868     -17.119136340868     -17.119136340868     -17.114244816740   0.0000   0.0000   0.0000   0.0000
    166    0.004640635206801    0.0    0.00     -17.119838105046     -17.119838105046     -17.119838105046     -17.115197469839   0.0000   0.0000   0.0000   0.0000
    167    0.004403594149126    0.0    0.00     -17.120504956646     -17.120504956646     -17.120504956646     -17.116101362497   0.0000   0.0000   0.0000   0.0000
    168    0.004179605273653    0.0    0.00     -17.121138774979     -17.121138774979     -17.121138774979     -17.116959169705   0.0000   0.0000   0.0000   0.0000
    169    0.003967915025544    0.0    0.00     -17.121741368423     -17.121741368423     -17.121741368423     -17.117773453397   0.0000   0.0000   0.0000   0.0000
    170    0.003767810959893    0.0    0.00     -17.122314390202     -17.122314390202     -17.122314390202     -17.118546579242   0.0000   0.0000   0.0000   0.0000
    171    0.003578620356773    0.0    0.00     -17.122859430446     -17.122859430446     -17.122859430446     -17.119280810089   0.0000   0.0000   0.0000   0.0000
    172    0.003399708896101    0.0    0.00     -17.123377953458     -17.123377953458     -17.123377953458     -17.119978244562   0.0000   0.0000   0.0000   0.0000
    173    0.003230479309696    0.0    0.00     -17.123871363862     -17.123871363862     -17.123871363862     -17.120640884552   0.0000   0.0000   0.0000   0.0000
    174    0.003070369103407    0.0    0.00     -17.124340983985     -17.124340983985     -17.124340983985     -17.121270614882   0.0000   0.0000   0.0000   0.0000
    175    0.002918849359252    0.0    0.00     -17.124788048770     -17.124788048770     -17.124788048770     -17.121869199411   0.0000   0.0000   0.0000   0.0000
    176    0.002775423043238    0.0    0.00     -17.125213735788     -17.125213735788     -17.125213735788     -17.122438312745   0.0000   0.0000   0.0000   0.0000
    177    0.002639623355104    0.0    0.00     -17.125619143379     -17.125619143379     -17.125619143379     -17.122979520023   0.0000   0.0000   0.0000   0.0000
    178    0.002511012032512    0.0    0.00     -17.126005321964     -17.126005321964     -17.126005321964     -17.123494309931   0.0000   0.0000   0.0000   0.0000
    179    0.002389177731481    0.0    0.00     -17.126373246792     -17.126373246792     -17.126373246792     -17.123984069061   0.0000   0.0000   0.0000   0.0000
    180    0.002273734544966    0.0    0.00     -17.126723854133     -17.126723854133     -17.126723854133     -17.124450119588   0.0000   0.0000   0.0000   0.0000
    181    0.002164320271715    0.0    0.00     -17.127058020786     -17.127058020786     -17.127058020786     -17.124893700514   0.0000   0.0000   0.0000   0.0000
    182    0.002060595164606    0.0    0.00     -17.127376573026     -17.127376573026     -17.127376573026     -17.125315977862   0.0000   0.0000   0.0000   0.0000
    183    0.001962240476387    0.0    0.00     -17.127680299651     -17.127680299651     -17.127680299651     -17.125718059175   0.0000   0.0000   0.0000   0.0000
    184    0.001868956953382    0.0    0.00     -17.127969935808     -17.127969935808     -17.127969935808     -17.126100978855   0.0000   0.0000   0.0000   0.0000
    185    0.001780463384956    0.0    0.00     -17.128246202800     -17.128246202800     -17.128246202800     -17.126465739415   0.0000   0.0000   0.0000   0.0000
    186    0.001696495535894    0.0    0.00     -17.128509756949     -17.128509756949     -17.128509756949     -17.126813261413   0.0000   0.0000   0.0000   0.0000
    187    0.001616805055567    0.0    0.00     -17.128761235568     -17.128761235568     -17.128761235568     -17.127144430512   0.0000   0.0000   0.0000   0.0000
    188    0.001541158403164    0.0    0.00     -17.129001228203     -17.129001228203     -17.129001228203     -17.127460069800   0.0000   0.0000   0.0000   0.0000
    189    0.001469335817309    0.0    0.00     -17.129230306487     -17.129230306487     -17.129230306487     -17.127760970670   0.0000   0.0000   0.0000   0.0000
    190    0.001401130382571    0.0    0.00     -17.129449002000     -17.129449002000     -17.129449002000     -17.128047871617   0.0000   0.0000   0.0000   0.0000
    191    0.001336347141340    0.0    0.00     -17.129657833655     -17.129657833655     -17.129657833655     -17.128321486514   0.0000   0.0000   0.0000   0.0000
    192    0.001274802271222    0.0    0.00     -17.129857277838     -17.129857277838     -17.129857277838     -17.128582475566   0.0000   0.0000   0.0000   0.0000
    193    0.001216322549427    0.0    0.00     -17.130047788742     -17.130047788742     -17.130047788742     -17.128831466192   0.0000   0.0000   0.0000   0.0000
    194    0.001160744460012    0.0    0.00     -17.130229807914     -17.130229807914     -17.130229807914     -17.129069063454   0.0000   0.0000   0.0000   0.0000
    195    0.001107913672586    0.0    0.00     -17.130403738048     -17.130403738048     -17.130403738048     -17.129295824375   0.0000   0.0000   0.0000   0.0000
    196    0.001057684635528    0.0    0.00     -17.130569966695     -17.130569966695     -17.130569966695     -17.129512282060   0.0000   0.0000   0.0000   0.0000
    197    0.001009919837187    0.0    0.00     -17.130728872037     -17.130728872037     -17.130728872037     -17.129718952200   0.0000   0.0000   0.0000   0.0000
    198    0.000964489323579    0.0    0.00     -17.130880798518     -17.130880798518     -17.130880798518     -17.129916309195   0.0000   0.0000   0.0000   0.0000
    199    0.000921270435331    0.0    0.00     -17.131026071701     -17.131026071701     -17.131026071701     -17.130104801266   0.0000   0.0000   0.0000   0.0000

 * Physical Quantities at step:   200

   from rhoofr: total integrated electronic density
   in g-space =      8.000000   in r-space =     8.000000


                total energy =      -17.13116500841 Hartree a.u.
              kinetic energy =        7.73064 Hartree a.u.
        electrostatic energy =      -23.19932 Hartree a.u.
                         esr =        0.00133 Hartree a.u.
                       eself =       30.31961 Hartree a.u.
      pseudopotential energy =       -0.91715 Hartree a.u.
  n-l pseudopotential energy =        3.44702 Hartree a.u.
 exchange-correlation energy =       -4.19237 Hartree a.u.
           average potential =        0.00000 Hartree a.u.



   Eigenvalues (eV), kp =   1 , spin =  1

  -25.10  -12.99   -9.12   -7.10
 
 
   CELL_PARAMETERS
   20.00000000    0.00000000    0.00000000
    0.00000000   20.00000000    0.00000000
    0.00000000    0.00000000   20.00000000

   System Density [g/cm^3] :              0.0252137250


   System Volume [A.U.^3] :           8000.0000000000


   Center of mass square displacement (a.u.):   0.000000

   ATOMIC_POSITIONS
   O       0.11790000000000E+02     0.12050000000000E+02     0.11500000000000E+02
   H       0.13450000000000E+02     0.11220000000000E+02     0.11500000000000E+02
   H       0.10560000000000E+02     0.10660000000000E+02     0.11500000000000E+02
 
   ATOMIC_VELOCITIES
   O       0.00000000000000E+00     0.00000000000000E+00     0.00000000000000E+00
   H       0.00000000000000E+00     0.00000000000000E+00     0.00000000000000E+00
   H       0.00000000000000E+00     0.00000000000000E+00     0.00000000000000E+00
 
   Forces acting on atoms (au):
   O      -0.52185626032151E-02    -0.33553849048994E-02     0.15276467292131E-01
   H      -0.93305490463911E-02     0.19824676148778E-02     0.51611298113107E-02
   H       0.67927525225573E-02     0.93490006913027E-02    -0.49807097665958E-04
 


   Partial temperatures (for each ionic specie) 
   Species  Temp (K)   Mean Square Displacement (a.u.)
        1   0.00E+00     0.0000E+00
        2   0.00E+00     0.0000E+00
 
  nfi     ekinc              temph  tempp     etot                 enthal               econs                econt              vnhh    xnhh0   vnhp    xnhp0
    200    0.000880147333236    0.0    0.00     -17.131165008409     -17.131165008409     -17.131165008409     -17.130284861076   0.0000   0.0000   0.0000   0.0000

   writing restart file (with schema): /home/simplogic86/Work/QE1/tempdir/h2o_vacuum_50.save/
     restart      :      0.04s CPU      0.21s WALL (       2 calls)
    201    0.000841010461780    0.0    0.00     -17.131297914648     -17.131297914648     -17.131297914648     -17.130456904186   0.0000   0.0000   0.0000   0.0000
    202    0.000803756286142    0.0    0.00     -17.131425068250     -17.131425068250     -17.131425068250     -17.130621311964   0.0000   0.0000   0.0000   0.0000
    203    0.000768287051339    0.0    0.00     -17.131546734445     -17.131546734445     -17.131546734445     -17.130778447394   0.0000   0.0000   0.0000   0.0000
    204    0.000734510308437    0.0    0.00     -17.131663178909     -17.131663178909     -17.131663178909     -17.130928668600   0.0000   0.0000   0.0000   0.0000
    205    0.000702338659024    0.0    0.00     -17.131774632434     -17.131774632434     -17.131774632434     -17.131072293775   0.0000   0.0000   0.0000   0.0000
    206    0.000671689537467    0.0    0.00     -17.131881330400     -17.131881330400     -17.131881330400     -17.131209640862   0.0000   0.0000   0.0000   0.0000
    207    0.000642484892161    0.0    0.00     -17.131983489053     -17.131983489053     -17.131983489053     -17.131341004161   0.0000   0.0000   0.0000   0.0000
    208    0.000614650934491    0.0    0.00     -17.132081321286     -17.132081321286     -17.132081321286     -17.131466670351   0.0000   0.0000   0.0000   0.0000
    209    0.000588117930914    0.0    0.00     -17.132175018806     -17.132175018806     -17.132175018806     -17.131586900875   0.0000   0.0000   0.0000   0.0000
    210    0.000562819995403    0.0    0.00     -17.132264764784     -17.132264764784     -17.132264764784     -17.131701944789   0.0000   0.0000   0.0000   0.0000
    211    0.000538694814219    0.0    0.00     -17.132350748199     -17.132350748199     -17.132350748199     -17.131812053384   0.0000   0.0000   0.0000   0.0000
    212    0.000515683493297    0.0    0.00     -17.132433132113     -17.132433132113     -17.132433132113     -17.131917448619   0.0000   0.0000   0.0000   0.0000
    213    0.000493730340950    0.0    0.00     -17.132512079298     -17.132512079298     -17.132512079298     -17.132018348957   0.0000   0.0000   0.0000   0.0000
    214    0.000472782664106    0.0    0.00     -17.132587742906     -17.132587742906     -17.132587742906     -17.132114960242   0.0000   0.0000   0.0000   0.0000
    215    0.000452790631150    0.0    0.00     -17.132660272168     -17.132660272168     -17.132660272168     -17.132207481537   0.0000   0.0000   0.0000   0.0000
    216    0.000433707120755    0.0    0.00     -17.132729799102     -17.132729799102     -17.132729799102     -17.132296091982   0.0000   0.0000   0.0000   0.0000
    217    0.000415487551678    0.0    0.00     -17.132796461498     -17.132796461498     -17.132796461498     -17.132380973946   0.0000   0.0000   0.0000   0.0000
    218    0.000398089711319    0.0    0.00     -17.132860386740     -17.132860386740     -17.132860386740     -17.132462297029   0.0000   0.0000   0.0000   0.0000
    219    0.000381473615985    0.0    0.00     -17.132921693171     -17.132921693171     -17.132921693171     -17.132540219555   0.0000   0.0000   0.0000   0.0000
    220    0.000365601439397    0.0    0.00     -17.132980496579     -17.132980496579     -17.132980496579     -17.132614895140   0.0000   0.0000   0.0000   0.0000
    221    0.000350437343627    0.0    0.00     -17.133036904379     -17.133036904379     -17.133036904379     -17.132686467035   0.0000   0.0000   0.0000   0.0000
    222    0.000335947337773    0.0    0.00     -17.133091023572     -17.133091023572     -17.133091023572     -17.132755076235   0.0000   0.0000   0.0000   0.0000
    223    0.000322099245406    0.0    0.00     -17.133142950254     -17.133142950254     -17.133142950254     -17.132820851008   0.0000   0.0000   0.0000   0.0000
    224    0.000308862536428    0.0    0.00     -17.133192780509     -17.133192780509     -17.133192780509     -17.132883917973   0.0000   0.0000   0.0000   0.0000
    225    0.000296208257644    0.0    0.00     -17.133240605182     -17.133240605182     -17.133240605182     -17.132944396924   0.0000   0.0000   0.0000   0.0000
    226    0.000284108987077    0.0    0.00     -17.133286510338     -17.133286510338     -17.133286510338     -17.133002401351   0.0000   0.0000   0.0000   0.0000
    227    0.000272538646650    0.0    0.00     -17.133330580320     -17.133330580320     -17.133330580320     -17.133058041673   0.0000   0.0000   0.0000   0.0000
    228    0.000261472475564    0.0    0.00     -17.133372890251     -17.133372890251     -17.133372890251     -17.133111417776   0.0000   0.0000   0.0000   0.0000
    229    0.000250887013972    0.0    0.00     -17.133413514167     -17.133413514167     -17.133413514167     -17.133162627153   0.0000   0.0000   0.0000   0.0000
    230    0.000240759937438    0.0    0.00     -17.133452528849     -17.133452528849     -17.133452528849     -17.133211768911   0.0000   0.0000   0.0000   0.0000
    231    0.000231070024837    0.0    0.00     -17.133489999872     -17.133489999872     -17.133489999872     -17.133258929847   0.0000   0.0000   0.0000   0.0000
    232    0.000221797131401    0.0    0.00     -17.133525990985     -17.133525990985     -17.133525990985     -17.133304193853   0.0000   0.0000   0.0000   0.0000
    233    0.000212922118976    0.0    0.00     -17.133560565358     -17.133560565358     -17.133560565358     -17.133347643239   0.0000   0.0000   0.0000   0.0000
    234    0.000204426780175    0.0    0.00     -17.133593784116     -17.133593784116     -17.133593784116     -17.133389357336   0.0000   0.0000   0.0000   0.0000
    235    0.000196293774549    0.0    0.00     -17.133625704263     -17.133625704263     -17.133625704263     -17.133429410489   0.0000   0.0000   0.0000   0.0000
    236    0.000188506618579    0.0    0.00     -17.133656376198     -17.133656376198     -17.133656376198     -17.133467869580   0.0000   0.0000   0.0000   0.0000
    237    0.000181049642224    0.0    0.00     -17.133685853915     -17.133685853915     -17.133685853915     -17.133504804272   0.0000   0.0000   0.0000   0.0000
    238    0.000173907932475    0.0    0.00     -17.133714187675     -17.133714187675     -17.133714187675     -17.133540279743   0.0000   0.0000   0.0000   0.0000
    239    0.000167067292789    0.0    0.00     -17.133741424467     -17.133741424467     -17.133741424467     -17.133574357175   0.0000   0.0000   0.0000   0.0000
    240    0.000160514188818    0.0    0.00     -17.133767609041     -17.133767609041     -17.133767609041     -17.133607094853   0.0000   0.0000   0.0000   0.0000
    241    0.000154235727988    0.0    0.00     -17.133792789520     -17.133792789520     -17.133792789520     -17.133638553792   0.0000   0.0000   0.0000   0.0000
    242    0.000148219634893    0.0    0.00     -17.133817002201     -17.133817002201     -17.133817002201     -17.133668782566   0.0000   0.0000   0.0000   0.0000
    243    0.000142454234969    0.0    0.00     -17.133840286465     -17.133840286465     -17.133840286465     -17.133697832230   0.0000   0.0000   0.0000   0.0000
    244    0.000136928398902    0.0    0.00     -17.133862683580     -17.133862683580     -17.133862683580     -17.133725755181   0.0000   0.0000   0.0000   0.0000
    245    0.000131631507453    0.0    0.00     -17.133884229433     -17.133884229433     -17.133884229433     -17.133752597926   0.0000   0.0000   0.0000   0.0000
    246    0.000126553469274    0.0    0.00     -17.133904954855     -17.133904954855     -17.133904954855     -17.133778401385   0.0000   0.0000   0.0000   0.0000
    247    0.000121684674842    0.0    0.00     -17.133924895307     -17.133924895307     -17.133924895307     -17.133803210632   0.0000   0.0000   0.0000   0.0000
    248    0.000117015933098    0.0    0.00     -17.133944083605     -17.133944083605     -17.133944083605     -17.133827067672   0.0000   0.0000   0.0000   0.0000
    249    0.000112538487684    0.0    0.00     -17.133962546647     -17.133962546647     -17.133962546647     -17.133850008160   0.0000   0.0000   0.0000   0.0000
    250    0.000108244006197    0.0    0.00     -17.133980316479     -17.133980316479     -17.133980316479     -17.133872072473   0.0000   0.0000   0.0000   0.0000
    251    0.000104124526313    0.0    0.00     -17.133997422408     -17.133997422408     -17.133997422408     -17.133893297881   0.0000   0.0000   0.0000   0.0000
    252    0.000100172463091    0.0    0.00     -17.134013888141     -17.134013888141     -17.134013888141     -17.133913715678   0.0000   0.0000   0.0000   0.0000
    253    0.000096380582279    0.0    0.00     -17.134029740527     -17.134029740527     -17.134029740527     -17.133933359945   0.0000   0.0000   0.0000   0.0000
    254    0.000092741978862    0.0    0.00     -17.134045002127     -17.134045002127     -17.134045002127     -17.133952260148   0.0000   0.0000   0.0000   0.0000
    255    0.000089250063911    0.0    0.00     -17.134059699387     -17.134059699387     -17.134059699387     -17.133970449323   0.0000   0.0000   0.0000   0.0000
    256    0.000085898541965    0.0    0.00     -17.134073854668     -17.134073854668     -17.134073854668     -17.133987956126   0.0000   0.0000   0.0000   0.0000
    257    0.000082681408809    0.0    0.00     -17.134087486212     -17.134087486212     -17.134087486212     -17.134004804803   0.0000   0.0000   0.0000   0.0000
    258    0.000079592935828    0.0    0.00     -17.134100616325     -17.134100616325     -17.134100616325     -17.134021023390   0.0000   0.0000   0.0000   0.0000
    259    0.000076627651982    0.0    0.00     -17.134113264087     -17.134113264087     -17.134113264087     -17.134036636435   0.0000   0.0000   0.0000   0.0000
    260    0.000073780330135    0.0    0.00     -17.134125449912     -17.134125449912     -17.134125449912     -17.134051669582   0.0000   0.0000   0.0000   0.0000
    261    0.000071045989530    0.0    0.00     -17.134137189522     -17.134137189522     -17.134137189522     -17.134066143533   0.0000   0.0000   0.0000   0.0000
    262    0.000068419878369    0.0    0.00     -17.134148500886     -17.134148500886     -17.134148500886     -17.134080081007   0.0000   0.0000   0.0000   0.0000
    263    0.000065897437314    0.0    0.00     -17.134159401858     -17.134159401858     -17.134159401858     -17.134093504421   0.0000   0.0000   0.0000   0.0000
    264    0.000063474310537    0.0    0.00     -17.134169907298     -17.134169907298     -17.134169907298     -17.134106432987   0.0000   0.0000   0.0000   0.0000
    265    0.000061146339154    0.0    0.00     -17.134180034148     -17.134180034148     -17.134180034148     -17.134118887809   0.0000   0.0000   0.0000   0.0000
    266    0.000058909547355    0.0    0.00     -17.134189796865     -17.134189796865     -17.134189796865     -17.134130887318   0.0000   0.0000   0.0000   0.0000
    267    0.000056760145521    0.0    0.00     -17.134199207102     -17.134199207102     -17.134199207102     -17.134142446957   0.0000   0.0000   0.0000   0.0000
    268    0.000054694503791    0.0    0.00     -17.134208280484     -17.134208280484     -17.134208280484     -17.134153585980   0.0000   0.0000   0.0000   0.0000
    269    0.000052709147843    0.0    0.00     -17.134217030056     -17.134217030056     -17.134217030056     -17.134164320909   0.0000   0.0000   0.0000   0.0000
    270    0.000050800763160    0.0    0.00     -17.134225466946     -17.134225466946     -17.134225466946     -17.134174666183   0.0000   0.0000   0.0000   0.0000
    271    0.000048966183809    0.0    0.00     -17.134233604499     -17.134233604499     -17.134233604499     -17.134184638315   0.0000   0.0000   0.0000   0.0000
    272    0.000047202381689    0.0    0.00     -17.134241451255     -17.134241451255     -17.134241451255     -17.134194248874   0.0000   0.0000   0.0000   0.0000
    273    0.000045506450379    0.0    0.00     -17.134249022664     -17.134249022664     -17.134249022664     -17.134203516214   0.0000   0.0000   0.0000   0.0000
    274    0.000043875612023    0.0    0.00     -17.134256324288     -17.134256324288     -17.134256324288     -17.134212448676   0.0000   0.0000   0.0000   0.0000
    275    0.000042307211180    0.0    0.00     -17.134263370099     -17.134263370099     -17.134263370099     -17.134221062887   0.0000   0.0000   0.0000   0.0000
    276    0.000040798700367    0.0    0.00     -17.134270168152     -17.134270168152     -17.134270168152     -17.134229369451   0.0000   0.0000   0.0000   0.0000
    277    0.000039347649863    0.0    0.00     -17.134276727804     -17.134276727804     -17.134276727804     -17.134237380154   0.0000   0.0000   0.0000   0.0000
    278    0.000037951734357    0.0    0.00     -17.134283058976     -17.134283058976     -17.134283058976     -17.134245107242   0.0000   0.0000   0.0000   0.0000
    279    0.000036608725946    0.0    0.00     -17.134289167243     -17.134289167243     -17.134289167243     -17.134252558518   0.0000   0.0000   0.0000   0.0000
    280    0.000035316497843    0.0    0.00     -17.134295063023     -17.134295063023     -17.134295063023     -17.134259746525   0.0000   0.0000   0.0000   0.0000
    281    0.000034073009965    0.0    0.00     -17.134300753711     -17.134300753711     -17.134300753711     -17.134266680701   0.0000   0.0000   0.0000   0.0000
    282    0.000032876304049    0.0    0.00     -17.134306248023     -17.134306248023     -17.134306248023     -17.134273371718   0.0000   0.0000   0.0000   0.0000
    283    0.000031724505099    0.0    0.00     -17.134311553149     -17.134311553149     -17.134311553149     -17.134279828644   0.0000   0.0000   0.0000   0.0000
    284    0.000030615819380    0.0    0.00     -17.134316675092     -17.134316675092     -17.134316675092     -17.134286059273   0.0000   0.0000   0.0000   0.0000
    285    0.000029548534277    0.0    0.00     -17.134321619622     -17.134321619622     -17.134321619622     -17.134292071087   0.0000   0.0000   0.0000   0.0000
    286    0.000028521005498    0.0    0.00     -17.134326396874     -17.134326396874     -17.134326396874     -17.134297875868   0.0000   0.0000   0.0000   0.0000
    287    0.000027531654821    0.0    0.00     -17.134331008363     -17.134331008363     -17.134331008363     -17.134303476708   0.0000   0.0000   0.0000   0.0000
    288    0.000026578968484    0.0    0.00     -17.134335464517     -17.134335464517     -17.134335464517     -17.134308885548   0.0000   0.0000   0.0000   0.0000
    289    0.000025661499683    0.0    0.00     -17.134339768046     -17.134339768046     -17.134339768046     -17.134314106546   0.0000   0.0000   0.0000   0.0000
    290    0.000024777866899    0.0    0.00     -17.134343925567     -17.134343925567     -17.134343925567     -17.134319147700   0.0000   0.0000   0.0000   0.0000
    291    0.000023926746525    0.0    0.00     -17.134347941157     -17.134347941157     -17.134347941157     -17.134324014410   0.0000   0.0000   0.0000   0.0000
    292    0.000023106864047    0.0    0.00     -17.134351822112     -17.134351822112     -17.134351822112     -17.134328715248   0.0000   0.0000   0.0000   0.0000
    293    0.000022316996413    0.0    0.00     -17.134355571993     -17.134355571993     -17.134355571993     -17.134333254997   0.0000   0.0000   0.0000   0.0000
    294    0.000021555974009    0.0    0.00     -17.134359196318     -17.134359196318     -17.134359196318     -17.134337640344   0.0000   0.0000   0.0000   0.0000
    295    0.000020822672513    0.0    0.00     -17.134362698715     -17.134362698715     -17.134362698715     -17.134341876042   0.0000   0.0000   0.0000   0.0000
    296    0.000020116018247    0.0    0.00     -17.134366084069     -17.134366084069     -17.134366084069     -17.134345968051   0.0000   0.0000   0.0000   0.0000
    297    0.000019434980786    0.0    0.00     -17.134369356024     -17.134369356024     -17.134369356024     -17.134349921043   0.0000   0.0000   0.0000   0.0000
    298    0.000018778569176    0.0    0.00     -17.134372518766     -17.134372518766     -17.134372518766     -17.134353740197   0.0000   0.0000   0.0000   0.0000
    299    0.000018145837090    0.0    0.00     -17.134375576224     -17.134375576224     -17.134375576224     -17.134357430387   0.0000   0.0000   0.0000   0.0000

 * Physical Quantities at step:   300

   from rhoofr: total integrated electronic density
   in g-space =      8.000000   in r-space =     8.000000


                total energy =      -17.13437853189 Hartree a.u.
              kinetic energy =        7.73363 Hartree a.u.
        electrostatic energy =      -23.20110 Hartree a.u.
                         esr =        0.00133 Hartree a.u.
                       eself =       30.31961 Hartree a.u.
      pseudopotential energy =       -0.91711 Hartree a.u.
  n-l pseudopotential energy =        3.44313 Hartree a.u.
 exchange-correlation energy =       -4.19292 Hartree a.u.
           average potential =        0.00000 Hartree a.u.



   Eigenvalues (eV), kp =   1 , spin =  1

  -25.10  -12.98   -9.13   -7.12
 
 
   CELL_PARAMETERS
   20.00000000    0.00000000    0.00000000
    0.00000000   20.00000000    0.00000000
    0.00000000    0.00000000   20.00000000

   System Density [g/cm^3] :              0.0252137250


   System Volume [A.U.^3] :           8000.0000000000


   Center of mass square displacement (a.u.):   0.000000

   ATOMIC_POSITIONS
   O       0.11790000000000E+02     0.12050000000000E+02     0.11500000000000E+02
   H       0.13450000000000E+02     0.11220000000000E+02     0.11500000000000E+02
   H       0.10560000000000E+02     0.10660000000000E+02     0.11500000000000E+02
 
   ATOMIC_VELOCITIES
   O       0.00000000000000E+00     0.00000000000000E+00     0.00000000000000E+00
   H       0.00000000000000E+00     0.00000000000000E+00     0.00000000000000E+00
   H       0.00000000000000E+00     0.00000000000000E+00     0.00000000000000E+00
 
   Forces acting on atoms (au):
   O       0.84323607281170E-03    -0.67435901488718E-02     0.32548538041260E-02
   H      -0.72122826222171E-02     0.25501069986586E-02     0.88611672427936E-03
   H       0.57230372587758E-02     0.53779947514767E-02     0.37729380398083E-03
 


   Partial temperatures (for each ionic specie) 
   Species  Temp (K)   Mean Square Displacement (a.u.)
        1   0.00E+00     0.0000E+00
        2   0.00E+00     0.0000E+00
 
  nfi     ekinc              temph  tempp     etot                 enthal               econs                econt              vnhh    xnhh0   vnhp    xnhp0
    300    0.000017535876597    0.0    0.00     -17.134378531890     -17.134378531890     -17.134378531890     -17.134360996014   0.0000   0.0000   0.0000   0.0000

   writing restart file (with schema): /home/simplogic86/Work/QE1/tempdir/h2o_vacuum_50.save/
     restart      :      0.07s CPU      0.32s WALL (       3 calls)
    301    0.000016947815454    0.0    0.00     -17.134381389721     -17.134381389721     -17.134381389721     -17.134364441905   0.0000   0.0000   0.0000   0.0000
    302    0.000016380815736    0.0    0.00     -17.134384152654     -17.134384152654     -17.134384152654     -17.134367771838   0.0000   0.0000   0.0000   0.0000
    303    0.000015834070791    0.0    0.00     -17.134386825574     -17.134386825574     -17.134386825574     -17.134370991503   0.0000   0.0000   0.0000   0.0000
    304    0.000015306809006    0.0    0.00     -17.134389410883     -17.134389410883     -17.134389410883     -17.134374104074   0.0000   0.0000   0.0000   0.0000
    305    0.000014798294740    0.0    0.00     -17.134391911284     -17.134391911284     -17.134391911284     -17.134377112990   0.0000   0.0000   0.0000   0.0000
    306    0.000014307818211    0.0    0.00     -17.134394329609     -17.134394329609     -17.134394329609     -17.134380021790   0.0000   0.0000   0.0000   0.0000
    307    0.000013834695430    0.0    0.00     -17.134396669864     -17.134396669864     -17.134396669864     -17.134382835168   0.0000   0.0000   0.0000   0.0000
    308    0.000013378270445    0.0    0.00     -17.134398933936     -17.134398933936     -17.134398933936     -17.134385555666   0.0000   0.0000   0.0000   0.0000
    309    0.000012937914332    0.0    0.00     -17.134401124354     -17.134401124354     -17.134401124354     -17.134388186440   0.0000   0.0000   0.0000   0.0000
    310    0.000012513027628    0.0    0.00     -17.134403242851     -17.134403242851     -17.134403242851     -17.134390729823   0.0000   0.0000   0.0000   0.0000
    311    0.000012103031913    0.0    0.00     -17.134405293523     -17.134405293523     -17.134405293523     -17.134393190491   0.0000   0.0000   0.0000   0.0000
    312    0.000011707369263    0.0    0.00     -17.134407276691     -17.134407276691     -17.134407276691     -17.134395569322   0.0000   0.0000   0.0000   0.0000
    313    0.000011325505735    0.0    0.00     -17.134409197113     -17.134409197113     -17.134409197113     -17.134397871607   0.0000   0.0000   0.0000   0.0000
    314    0.000010956926819    0.0    0.00     -17.134411055011     -17.134411055011     -17.134411055011     -17.134400098084   0.0000   0.0000   0.0000   0.0000
    315    0.000010601138559    0.0    0.00     -17.134412853697     -17.134412853697     -17.134412853697     -17.134402252558   0.0000   0.0000   0.0000   0.0000
    316    0.000010257669378    0.0    0.00     -17.134414594276     -17.134414594276     -17.134414594276     -17.134404336606   0.0000   0.0000   0.0000   0.0000
    317    0.000009926065799    0.0    0.00     -17.134416280068     -17.134416280068     -17.134416280068     -17.134406354003   0.0000   0.0000   0.0000   0.0000
    318    0.000009605890896    0.0    0.00     -17.134417912465     -17.134417912465     -17.134417912465     -17.134408306574   0.0000   0.0000   0.0000   0.0000
    319    0.000009296723667    0.0    0.00     -17.134419492894     -17.134419492894     -17.134419492894     -17.134410196170   0.0000   0.0000   0.0000   0.0000
    320    0.000008998161099    0.0    0.00     -17.134421022361     -17.134421022361     -17.134421022361     -17.134412024200   0.0000   0.0000   0.0000   0.0000
    321    0.000008709816686    0.0    0.00     -17.134422504111     -17.134422504111     -17.134422504111     -17.134413794294   0.0000   0.0000   0.0000   0.0000
    322    0.000008431318326    0.0    0.00     -17.134423937884     -17.134423937884     -17.134423937884     -17.134415506566   0.0000   0.0000   0.0000   0.0000
    323    0.000008162307058    0.0    0.00     -17.134425326770     -17.134425326770     -17.134425326770     -17.134417164463   0.0000   0.0000   0.0000   0.0000
    324    0.000007902437047    0.0    0.00     -17.134426673156     -17.134426673156     -17.134426673156     -17.134418770719   0.0000   0.0000   0.0000   0.0000
    325    0.000007651377689    0.0    0.00     -17.134427976419     -17.134427976419     -17.134427976419     -17.134420325041   0.0000   0.0000   0.0000   0.0000
    326    0.000007408810685    0.0    0.00     -17.134429238834     -17.134429238834     -17.134429238834     -17.134421830023   0.0000   0.0000   0.0000   0.0000
    327    0.000007174428786    0.0    0.00     -17.134430462120     -17.134430462120     -17.134430462120     -17.134423287691   0.0000   0.0000   0.0000   0.0000
    328    0.000006947936659    0.0    0.00     -17.134431647230     -17.134431647230     -17.134431647230     -17.134424699294   0.0000   0.0000   0.0000   0.0000
    329    0.000006729053640    0.0    0.00     -17.134432794836     -17.134432794836     -17.134432794836     -17.134426065782   0.0000   0.0000   0.0000   0.0000
    330    0.000006517508114    0.0    0.00     -17.134433907331     -17.134433907331     -17.134433907331     -17.134427389823   0.0000   0.0000   0.0000   0.0000
    331    0.000006313036743    0.0    0.00     -17.134434985235     -17.134434985235     -17.134434985235     -17.134428672198   0.0000   0.0000   0.0000   0.0000
    332    0.000006115386699    0.0    0.00     -17.134436029916     -17.134436029916     -17.134436029916     -17.134429914530   0.0000   0.0000   0.0000   0.0000
    333    0.000005924314567    0.0    0.00     -17.134437042532     -17.134437042532     -17.134437042532     -17.134431118217   0.0000   0.0000   0.0000   0.0000
    334    0.000005739588052    0.0    0.00     -17.134438024440     -17.134438024440     -17.134438024440     -17.134432284852   0.0000   0.0000   0.0000   0.0000
    335    0.000005560983898    0.0    0.00     -17.134438975165     -17.134438975165     -17.134438975165     -17.134433414181   0.0000   0.0000   0.0000   0.0000
    336    0.000005388285793    0.0    0.00     -17.134439897113     -17.134439897113     -17.134439897113     -17.134434508827   0.0000   0.0000   0.0000   0.0000
    337    0.000005221285651    0.0    0.00     -17.134440790940     -17.134440790940     -17.134440790940     -17.134435569655   0.0000   0.0000   0.0000   0.0000
    338    0.000005059783577    0.0    0.00     -17.134441655694     -17.134441655694     -17.134441655694     -17.134436595910   0.0000   0.0000   0.0000   0.0000
    339    0.000004903585447    0.0    0.00     -17.134442495382     -17.134442495382     -17.134442495382     -17.134437591796   0.0000   0.0000   0.0000   0.0000
    340    0.000004752505150    0.0    0.00     -17.134443309324     -17.134443309324     -17.134443309324     -17.134438556819   0.0000   0.0000   0.0000   0.0000
    341    0.000004606365123    0.0    0.00     -17.134444098341     -17.134444098341     -17.134444098341     -17.134439491976   0.0000   0.0000   0.0000   0.0000
    342    0.000004464993653    0.0    0.00     -17.134444863284     -17.134444863284     -17.134444863284     -17.134440398290   0.0000   0.0000   0.0000   0.0000
    343    0.000004328225171    0.0    0.00     -17.134445604777     -17.134445604777     -17.134445604777     -17.134441276552   0.0000   0.0000   0.0000   0.0000
    344    0.000004195899263    0.0    0.00     -17.134446324008     -17.134446324008     -17.134446324008     -17.134442128109   0.0000   0.0000   0.0000   0.0000
    345    0.000004067861871    0.0    0.00     -17.134447021532     -17.134447021532     -17.134447021532     -17.134442953670   0.0000   0.0000   0.0000   0.0000
    346    0.000003943965291    0.0    0.00     -17.134447698270     -17.134447698270     -17.134447698270     -17.134443754304   0.0000   0.0000   0.0000   0.0000
    347    0.000003824067258    0.0    0.00     -17.134448354472     -17.134448354472     -17.134448354472     -17.134444530405   0.0000   0.0000   0.0000   0.0000
    348    0.000003708030390    0.0    0.00     -17.134448991386     -17.134448991386     -17.134448991386     -17.134445283355   0.0000   0.0000   0.0000   0.0000
    349    0.000003595722089    0.0    0.00     -17.134449608443     -17.134449608443     -17.134449608443     -17.134446012721   0.0000   0.0000   0.0000   0.0000
    350    0.000003487015964    0.0    0.00     -17.134450207544     -17.134450207544     -17.134450207544     -17.134446720528   0.0000   0.0000   0.0000   0.0000
    351    0.000003381789112    0.0    0.00     -17.134450788942     -17.134450788942     -17.134450788942     -17.134447407153   0.0000   0.0000   0.0000   0.0000
    352    0.000003279921919    0.0    0.00     -17.134451352655     -17.134451352655     -17.134451352655     -17.134448072733   0.0000   0.0000   0.0000   0.0000
    353    0.000003181300311    0.0    0.00     -17.134451899787     -17.134451899787     -17.134451899787     -17.134448718487   0.0000   0.0000   0.0000   0.0000
    354    0.000003085815018    0.0    0.00     -17.134452431872     -17.134452431872     -17.134452431872     -17.134449346057   0.0000   0.0000   0.0000   0.0000
    355    0.000002993359905    0.0    0.00     -17.134452946409     -17.134452946409     -17.134452946409     -17.134449953049   0.0000   0.0000   0.0000   0.0000
    356    0.000002903832844    0.0    0.00     -17.134453446619     -17.134453446619     -17.134453446619     -17.134450542786   0.0000   0.0000   0.0000   0.0000
    357    0.000002817135593    0.0    0.00     -17.134453931455     -17.134453931455     -17.134453931455     -17.134451114319   0.0000   0.0000   0.0000   0.0000
    358    0.000002733173375    0.0    0.00     -17.134454401489     -17.134454401489     -17.134454401489     -17.134451668316   0.0000   0.0000   0.0000   0.0000
    359    0.000002651854515    0.0    0.00     -17.134454858175     -17.134454858175     -17.134454858175     -17.134452206320   0.0000   0.0000   0.0000   0.0000
    360    0.000002573090216    0.0    0.00     -17.134455301595     -17.134455301595     -17.134455301595     -17.134452728505   0.0000   0.0000   0.0000   0.0000
    361    0.000002496794572    0.0    0.00     -17.134455731907     -17.134455731907     -17.134455731907     -17.134453235112   0.0000   0.0000   0.0000   0.0000
    362    0.000002422884987    0.0    0.00     -17.134456149546     -17.134456149546     -17.134456149546     -17.134453726661   0.0000   0.0000   0.0000   0.0000
    363    0.000002351282299    0.0    0.00     -17.134456555342     -17.134456555342     -17.134456555342     -17.134454204060   0.0000   0.0000   0.0000   0.0000
    364    0.000002281909907    0.0    0.00     -17.134456948815     -17.134456948815     -17.134456948815     -17.134454666905   0.0000   0.0000   0.0000   0.0000
    365    0.000002214694258    0.0    0.00     -17.134457331640     -17.134457331640     -17.134457331640     -17.134455116946   0.0000   0.0000   0.0000   0.0000
    366    0.000002149564865    0.0    0.00     -17.134457702572     -17.134457702572     -17.134457702572     -17.134455553007   0.0000   0.0000   0.0000   0.0000
    367    0.000002086452843    0.0    0.00     -17.134458062757     -17.134458062757     -17.134458062757     -17.134455976304   0.0000   0.0000   0.0000   0.0000
    368    0.000002025291927    0.0    0.00     -17.134458412240     -17.134458412240     -17.134458412240     -17.134456386948   0.0000   0.0000   0.0000   0.0000
    369    0.000001966018742    0.0    0.00     -17.134458751904     -17.134458751904     -17.134458751904     -17.134456785885   0.0000   0.0000   0.0000   0.0000
    370    0.000001908571472    0.0    0.00     -17.134459081741     -17.134459081741     -17.134459081741     -17.134457173170   0.0000   0.0000   0.0000   0.0000
    371    0.000001852890103    0.0    0.00     -17.134459401592     -17.134459401592     -17.134459401592     -17.134457548701   0.0000   0.0000   0.0000   0.0000
[...]
    768    0.000000000053676    0.0    0.00     -17.134470605149     -17.134470605149     -17.134470605149     -17.134470605095   0.0000   0.0000   0.0000   0.0000
    769    0.000000000052326    0.0    0.00     -17.134470605158     -17.134470605158     -17.134470605158     -17.134470605105   0.0000   0.0000   0.0000   0.0000
    770    0.000000000051011    0.0    0.00     -17.134470605167     -17.134470605167     -17.134470605167     -17.134470605116   0.0000   0.0000   0.0000   0.0000
    771    0.000000000049729    0.0    0.00     -17.134470605184     -17.134470605184     -17.134470605184     -17.134470605135   0.0000   0.0000   0.0000   0.0000
    772    0.000000000048479    0.0    0.00     -17.134470605310     -17.134470605310     -17.134470605310     -17.134470605261   0.0000   0.0000   0.0000   0.0000
    773    0.000000000047261    0.0    0.00     -17.134470605287     -17.134470605287     -17.134470605287     -17.134470605240   0.0000   0.0000   0.0000   0.0000
    774    0.000000000046074    0.0    0.00     -17.134470605295     -17.134470605295     -17.134470605295     -17.134470605249   0.0000   0.0000   0.0000   0.0000
    775    0.000000000044916    0.0    0.00     -17.134470605336     -17.134470605336     -17.134470605336     -17.134470605291   0.0000   0.0000   0.0000   0.0000
    776    0.000000000043787    0.0    0.00     -17.134470605311     -17.134470605311     -17.134470605311     -17.134470605267   0.0000   0.0000   0.0000   0.0000
    777    0.000000000042687    0.0    0.00     -17.134470605318     -17.134470605318     -17.134470605318     -17.134470605275   0.0000   0.0000   0.0000   0.0000
    778    0.000000000041614    0.0    0.00     -17.134470605360     -17.134470605360     -17.134470605360     -17.134470605319   0.0000   0.0000   0.0000   0.0000
    779    0.000000000040568    0.0    0.00     -17.134470605333     -17.134470605333     -17.134470605333     -17.134470605292   0.0000   0.0000   0.0000   0.0000
    780    0.000000000039549    0.0    0.00     -17.134470605339     -17.134470605339     -17.134470605339     -17.134470605300   0.0000   0.0000   0.0000   0.0000
    781    0.000000000038555    0.0    0.00     -17.134470605382     -17.134470605382     -17.134470605382     -17.134470605343   0.0000   0.0000   0.0000   0.0000
    782    0.000000000037586    0.0    0.00     -17.134470605353     -17.134470605353     -17.134470605353     -17.134470605316   0.0000   0.0000   0.0000   0.0000
    783    0.000000000036641    0.0    0.00     -17.134470605359     -17.134470605359     -17.134470605359     -17.134470605323   0.0000   0.0000   0.0000   0.0000
    784    0.000000000035720    0.0    0.00     -17.134470605402     -17.134470605402     -17.134470605402     -17.134470605366   0.0000   0.0000   0.0000   0.0000
    785    0.000000000034822    0.0    0.00     -17.134470605372     -17.134470605372     -17.134470605372     -17.134470605338   0.0000   0.0000   0.0000   0.0000
    786    0.000000000033947    0.0    0.00     -17.134470605378     -17.134470605378     -17.134470605378     -17.134470605344   0.0000   0.0000   0.0000   0.0000
    787    0.000000000033093    0.0    0.00     -17.134470605420     -17.134470605420     -17.134470605420     -17.134470605387   0.0000   0.0000   0.0000   0.0000
    788    0.000000000032261    0.0    0.00     -17.134470605390     -17.134470605390     -17.134470605390     -17.134470605358   0.0000   0.0000   0.0000   0.0000
    789    0.000000000031450    0.0    0.00     -17.134470605395     -17.134470605395     -17.134470605395     -17.134470605363   0.0000   0.0000   0.0000   0.0000
    790    0.000000000030660    0.0    0.00     -17.134470605436     -17.134470605436     -17.134470605436     -17.134470605406   0.0000   0.0000   0.0000   0.0000
    791    0.000000000029889    0.0    0.00     -17.134470605406     -17.134470605406     -17.134470605406     -17.134470605376   0.0000   0.0000   0.0000   0.0000
    792    0.000000000029138    0.0    0.00     -17.134470605411     -17.134470605411     -17.134470605411     -17.134470605382   0.0000   0.0000   0.0000   0.0000
    793    0.000000000028405    0.0    0.00     -17.134470605452     -17.134470605452     -17.134470605452     -17.134470605423   0.0000   0.0000   0.0000   0.0000
    794    0.000000000027691    0.0    0.00     -17.134470605421     -17.134470605421     -17.134470605421     -17.134470605394   0.0000   0.0000   0.0000   0.0000
    795    0.000000000026995    0.0    0.00     -17.134470605367     -17.134470605367     -17.134470605367     -17.134470605340   0.0000   0.0000   0.0000   0.0000
    796    0.000000000026317    0.0    0.00     -17.134470605406     -17.134470605406     -17.134470605406     -17.134470605380   0.0000   0.0000   0.0000   0.0000
    797    0.000000000025656    0.0    0.00     -17.134470605377     -17.134470605377     -17.134470605377     -17.134470605351   0.0000   0.0000   0.0000   0.0000
    798    0.000000000025011    0.0    0.00     -17.134470605381     -17.134470605381     -17.134470605381     -17.134470605356   0.0000   0.0000   0.0000   0.0000
    799    0.000000000024383    0.0    0.00     -17.134470605419     -17.134470605419     -17.134470605419     -17.134470605395   0.0000   0.0000   0.0000   0.0000

 * Physical Quantities at step:   800

   from rhoofr: total integrated electronic density
   in g-space =      8.000000   in r-space =     8.000000


                total energy =      -17.13447060532 Hartree a.u.
              kinetic energy =        7.73446 Hartree a.u.
        electrostatic energy =      -23.20150 Hartree a.u.
                         esr =        0.00133 Hartree a.u.
                       eself =       30.31961 Hartree a.u.
      pseudopotential energy =       -0.91710 Hartree a.u.
  n-l pseudopotential energy =        3.44260 Hartree a.u.
 exchange-correlation energy =       -4.19292 Hartree a.u.
           average potential =        0.00000 Hartree a.u.



   Eigenvalues (eV), kp =   1 , spin =  1

  -25.10  -12.98   -9.13   -7.12
 
 
   CELL_PARAMETERS
   20.00000000    0.00000000    0.00000000
    0.00000000   20.00000000    0.00000000
    0.00000000    0.00000000   20.00000000

   System Density [g/cm^3] :              0.0252137250


   System Volume [A.U.^3] :           8000.0000000000


   Center of mass square displacement (a.u.):   0.000000

   ATOMIC_POSITIONS
   O       0.11790000000000E+02     0.12050000000000E+02     0.11500000000000E+02
   H       0.13450000000000E+02     0.11220000000000E+02     0.11500000000000E+02
   H       0.10560000000000E+02     0.10660000000000E+02     0.11500000000000E+02
 
   ATOMIC_VELOCITIES
   O       0.00000000000000E+00     0.00000000000000E+00     0.00000000000000E+00
   H       0.00000000000000E+00     0.00000000000000E+00     0.00000000000000E+00
   H       0.00000000000000E+00     0.00000000000000E+00     0.00000000000000E+00
 
   Forces acting on atoms (au):
   O       0.14314054491358E-02    -0.73930057447344E-02     0.30695848673431E-05
   H      -0.69368564879830E-02     0.24921355094326E-02     0.83431989163310E-06
   H       0.55535534338988E-02     0.49293094249889E-02     0.80926183083052E-06
 


   Partial temperatures (for each ionic specie) 
   Species  Temp (K)   Mean Square Displacement (a.u.)
        1   0.00E+00     0.0000E+00
        2   0.00E+00     0.0000E+00
 
  nfi     ekinc              temph  tempp     etot                 enthal               econs                econt              vnhh    xnhh0   vnhp    xnhp0
    800    0.000000000023770    0.0    0.00     -17.134470605317     -17.134470605317     -17.134470605317     -17.134470605293   0.0000   0.0000   0.0000   0.0000

   writing restart file (with schema): /home/simplogic86/Work/QE1/tempdir/h2o_vacuum_50.save/
     restart      :      0.22s CPU      0.80s WALL (       8 calls)
    801    0.000000000023173    0.0    0.00     -17.134470605321     -17.134470605321     -17.134470605321     -17.134470605297   0.0000   0.0000   0.0000   0.0000
    802    0.000000000022591    0.0    0.00     -17.134470605358     -17.134470605358     -17.134470605358     -17.134470605335   0.0000   0.0000   0.0000   0.0000
    803    0.000000000022023    0.0    0.00     -17.134470605329     -17.134470605329     -17.134470605329     -17.134470605307   0.0000   0.0000   0.0000   0.0000
    804    0.000000000021470    0.0    0.00     -17.134470605332     -17.134470605332     -17.134470605332     -17.134470605311   0.0000   0.0000   0.0000   0.0000
    805    0.000000000020931    0.0    0.00     -17.134470605317     -17.134470605317     -17.134470605317     -17.134470605296   0.0000   0.0000   0.0000   0.0000
    806    0.000000000020405    0.0    0.00     -17.134470605288     -17.134470605288     -17.134470605288     -17.134470605268   0.0000   0.0000   0.0000   0.0000
    807    0.000000000019893    0.0    0.00     -17.134470605291     -17.134470605291     -17.134470605291     -17.134470605272   0.0000   0.0000   0.0000   0.0000
    808    0.000000000019393    0.0    0.00     -17.134470605326     -17.134470605326     -17.134470605326     -17.134470605307   0.0000   0.0000   0.0000   0.0000
    809    0.000000000018906    0.0    0.00     -17.134470605299     -17.134470605299     -17.134470605299     -17.134470605280   0.0000   0.0000   0.0000   0.0000
    810    0.000000000018431    0.0    0.00     -17.134470605301     -17.134470605301     -17.134470605301     -17.134470605283   0.0000   0.0000   0.0000   0.0000
    811    0.000000000017968    0.0    0.00     -17.134470605335     -17.134470605335     -17.134470605335     -17.134470605317   0.0000   0.0000   0.0000   0.0000
    812    0.000000000017517    0.0    0.00     -17.134470605308     -17.134470605308     -17.134470605308     -17.134470605291   0.0000   0.0000   0.0000   0.0000
    813    0.000000000017077    0.0    0.00     -17.134470605311     -17.134470605311     -17.134470605311     -17.134470605294   0.0000   0.0000   0.0000   0.0000
    814    0.000000000016648    0.0    0.00     -17.134470605286     -17.134470605286     -17.134470605286     -17.134470605270   0.0000   0.0000   0.0000   0.0000
    815    0.000000000016230    0.0    0.00     -17.134470605261     -17.134470605261     -17.134470605261     -17.134470605245   0.0000   0.0000   0.0000   0.0000
    816    0.000000000015822    0.0    0.00     -17.134470605263     -17.134470605263     -17.134470605263     -17.134470605247   0.0000   0.0000   0.0000   0.0000
    817    0.000000000015425    0.0    0.00     -17.134470605294     -17.134470605294     -17.134470605294     -17.134470605278   0.0000   0.0000   0.0000   0.0000
    818    0.000000000015037    0.0    0.00     -17.134470605269     -17.134470605269     -17.134470605269     -17.134470605254   0.0000   0.0000   0.0000   0.0000
    819    0.000000000014660    0.0    0.00     -17.134470605271     -17.134470605271     -17.134470605271     -17.134470605256   0.0000   0.0000   0.0000   0.0000
    820    0.000000000014292    0.0    0.00     -17.134470605300     -17.134470605300     -17.134470605300     -17.134470605286   0.0000   0.0000   0.0000   0.0000
    821    0.000000000013933    0.0    0.00     -17.134470605277     -17.134470605277     -17.134470605277     -17.134470605263   0.0000   0.0000   0.0000   0.0000
    822    0.000000000013583    0.0    0.00     -17.134470605279     -17.134470605279     -17.134470605279     -17.134470605265   0.0000   0.0000   0.0000   0.0000
    823    0.000000000013241    0.0    0.00     -17.134470605306     -17.134470605306     -17.134470605306     -17.134470605293   0.0000   0.0000   0.0000   0.0000
    824    0.000000000012909    0.0    0.00     -17.134470605284     -17.134470605284     -17.134470605284     -17.134470605271   0.0000   0.0000   0.0000   0.0000
    825    0.000000000012584    0.0    0.00     -17.134470605285     -17.134470605285     -17.134470605285     -17.134470605273   0.0000   0.0000   0.0000   0.0000
    826    0.000000000012268    0.0    0.00     -17.134470605388     -17.134470605388     -17.134470605388     -17.134470605376   0.0000   0.0000   0.0000   0.0000
    827    0.000000000011960    0.0    0.00     -17.134470605367     -17.134470605367     -17.134470605367     -17.134470605355   0.0000   0.0000   0.0000   0.0000
    828    0.000000000011660    0.0    0.00     -17.134470605368     -17.134470605368     -17.134470605368     -17.134470605356   0.0000   0.0000   0.0000   0.0000
    829    0.000000000011367    0.0    0.00     -17.134470605393     -17.134470605393     -17.134470605393     -17.134470605382   0.0000   0.0000   0.0000   0.0000
    830    0.000000000011082    0.0    0.00     -17.134470605373     -17.134470605373     -17.134470605373     -17.134470605361   0.0000   0.0000   0.0000   0.0000
    831    0.000000000010804    0.0    0.00     -17.134470605374     -17.134470605374     -17.134470605374     -17.134470605363   0.0000   0.0000   0.0000   0.0000
    832    0.000000000010532    0.0    0.00     -17.134470605398     -17.134470605398     -17.134470605398     -17.134470605387   0.0000   0.0000   0.0000   0.0000
    833    0.000000000010268    0.0    0.00     -17.134470605378     -17.134470605378     -17.134470605378     -17.134470605368   0.0000   0.0000   0.0000   0.0000
    834    0.000000000010010    0.0    0.00     -17.134470605380     -17.134470605380     -17.134470605380     -17.134470605369   0.0000   0.0000   0.0000   0.0000
    835    0.000000000009759    0.0    0.00     -17.134470605402     -17.134470605402     -17.134470605402     -17.134470605392   0.0000   0.0000   0.0000   0.0000

   MAIN:          EKINC   (thr)          DETOT   (thr)       MAXFORCE   (thr)
   MAIN:   0.975854D-11  0.1D-10  0.225171D-10  0.1D-08  0.000000D+00  0.1D+11
   MAIN: convergence achieved for system relaxation

 * Physical Quantities at step:   836


                total energy =      -17.13447060538 Hartree a.u.
              kinetic energy =        7.73446 Hartree a.u.
        electrostatic energy =      -23.20150 Hartree a.u.
                         esr =        0.00133 Hartree a.u.
                       eself =       30.31961 Hartree a.u.
      pseudopotential energy =       -0.91710 Hartree a.u.
  n-l pseudopotential energy =        3.44260 Hartree a.u.
 exchange-correlation energy =       -4.19292 Hartree a.u.
           average potential =        0.00000 Hartree a.u.



   Eigenvalues (eV), kp =   1 , spin =  1

  -25.10  -12.98   -9.13   -7.12
 
 
   CELL_PARAMETERS
   20.00000000    0.00000000    0.00000000
    0.00000000   20.00000000    0.00000000
    0.00000000    0.00000000   20.00000000

   System Density [g/cm^3] :              0.0252137250


   System Volume [A.U.^3] :           8000.0000000000


   Center of mass square displacement (a.u.):   0.000000

   ATOMIC_POSITIONS
   O       0.11790000000000E+02     0.12050000000000E+02     0.11500000000000E+02
   H       0.13450000000000E+02     0.11220000000000E+02     0.11500000000000E+02
   H       0.10560000000000E+02     0.10660000000000E+02     0.11500000000000E+02
 
   ATOMIC_VELOCITIES
   O       0.00000000000000E+00     0.00000000000000E+00     0.00000000000000E+00
   H       0.00000000000000E+00     0.00000000000000E+00     0.00000000000000E+00
   H       0.00000000000000E+00     0.00000000000000E+00     0.00000000000000E+00
 
   Forces acting on atoms (au):
   O       0.14314156910157E-02    -0.73930561589677E-02     0.17150044951310E-05
   H      -0.69368376721892E-02     0.24921221892447E-02     0.50588367565397E-06
   H       0.55535406625038E-02     0.49292888662169E-02     0.49469280615884E-06
 


   Partial temperatures (for each ionic specie) 
   Species  Temp (K)   Mean Square Displacement (a.u.)
        1   0.00E+00     0.0000E+00
        2   0.00E+00     0.0000E+00
    836    0.000000000009513    0.0    0.00     -17.134470605383     -17.134470605383     -17.134470605383     -17.134470605374   0.0000   0.0000   0.0000   0.0000

   MAIN:          EKINC   (thr)          DETOT   (thr)       MAXFORCE   (thr)
   MAIN:   0.951339D-11  0.1D-10  0.187477D-10  0.1D-08  0.000000D+00  0.1D+11
   MAIN: convergence achieved for system relaxation

   writing restart file (with schema): /home/simplogic86/Work/QE1/tempdir/h2o_vacuum_50.save/
     restart      :      0.27s CPU      0.88s WALL (       9 calls)


   Averaged Physical Quantities
                      accumulated      this run
   ekinc         :        0.15892       0.15892 (AU)
   ekin          :        7.55087       7.55087 (AU)
   epot          :      -27.02087     -27.02087 (AU)
   total energy  :      -16.16528     -16.16528 (AU)
   temperature   :        0.00000       0.00000 (K )
   enthalpy      :      -16.16528     -16.16528 (AU)
   econs         :      -16.16528     -16.16528 (AU)
   pressure      :        0.00000       0.00000 (Gpa)
   volume        :     8000.00000    8000.00000 (AU)



     Called by MAIN_LOOP:
     initialize   :      2.03s CPU      2.26s WALL (       1 calls)
     main_loop    :    314.32s CPU    348.89s WALL (     836 calls)
     cpr_total    :    314.65s CPU    349.86s WALL (       1 calls)

     Called by INIT_RUN:

     Called by CPR:
     cpr_md       :    314.64s CPU    349.87s WALL (     836 calls)
     move_electro :    312.56s CPU    344.40s WALL (     836 calls)

     Called by move_electrons:
     rhoofr       :     52.36s CPU     58.42s WALL (     837 calls)
     vofrho       :    228.09s CPU    250.77s WALL (     837 calls)
     dforce       :      6.74s CPU      7.33s WALL (    1674 calls)
     calphi       :      0.13s CPU      0.14s WALL (     837 calls)
     newd         :     23.57s CPU     25.92s WALL (     837 calls)
     nlfl         :      0.16s CPU      0.18s WALL (     837 calls)

     Called by ortho:
     ortho_iter   :      0.12s CPU      0.15s WALL (     837 calls)
     rsg          :      0.04s CPU      0.04s WALL (     837 calls)
     rhoset       :      0.14s CPU      0.15s WALL (     837 calls)
     sigset       :      0.12s CPU      0.15s WALL (     837 calls)
     tauset       :      0.11s CPU      0.12s WALL (     837 calls)
     ortho        :      0.97s CPU      1.17s WALL (     837 calls)
     updatc       :      0.17s CPU      0.18s WALL (     837 calls)

     Small boxes:
     rhov         :     19.74s CPU     23.65s WALL (     837 calls)
     fftb         :      0.00s CPU      0.00s WALL (       2 calls)

     Low-level routines:
     prefor       :      0.20s CPU      0.20s WALL (     837 calls)
     nlfq         :      0.78s CPU      0.97s WALL (     837 calls)
     nlsm1        :      0.10s CPU      0.11s WALL (     838 calls)
     nlsm2        :      0.61s CPU      0.71s WALL (     837 calls)
     fft          :    165.60s CPU    179.35s WALL (    7542 calls)
     ffts         :      5.90s CPU      6.50s WALL (    1674 calls)
     fftw         :      7.64s CPU      8.47s WALL (    5022 calls)
     fft_scatt_xy :     21.23s CPU     22.58s WALL (   14238 calls)
     fft_scatt_yz :     79.80s CPU     88.17s WALL (   14238 calls)
     fft_scatt_tg :      0.43s CPU      0.46s WALL (    5022 calls)
     betagx       :      0.76s CPU      0.79s WALL (       1 calls)
     qradx        :      0.59s CPU      0.61s WALL (       1 calls)
     gram         :      0.00s CPU      0.00s WALL (       1 calls)
     nlinit       :      1.45s CPU      1.52s WALL (       1 calls)
     init_dim     :      0.14s CPU      0.18s WALL (       1 calls)
     newnlinit    :      0.02s CPU      0.02s WALL (       1 calls)
     from_scratch :      0.36s CPU      0.47s WALL (       1 calls)
     strucf       :      0.00s CPU      0.00s WALL (       1 calls)
     calbec       :      0.11s CPU      0.12s WALL (     838 calls)
 
     Environ routines
 
 
     CP           :   5m16.76s CPU   5m52.23s WALL

 
   This run was terminated on:  15:21:36  23Sep2021            

=------------------------------------------------------------------------------=
   JOB DONE.
=------------------------------------------------------------------------------=
