
     Program PWSCF v.7.0 starts on  2May2022 at 21:55:33 

     This program is part of the open-source Quantum ESPRESSO suite
     for quantum simulation of materials; please cite
         "P. Giannozzi et al., J. Phys.:Condens. Matter 21 395502 (2009);
         "P. Giannozzi et al., J. Phys.:Condens. Matter 29 465901 (2017);
         "P. Giannozzi et al., J. Chem. Phys. 152 154105 (2020);
          URL http://www.quantum-espresso.org", 
     in publications or presentations arising from this work. More details at
     http://www.quantum-espresso.org/quote

     Parallel version (MPI), running on     1 processors

     MPI processes distributed on     1 nodes
     19353 MiB available memory on the printing compute node when the environment starts

     Waiting for input...
     Reading input from standard input

     Current dimensions of program PWSCF are:
     Max number of different atomic species (ntypx) = 10
     Max number of k-points (npk) =  40000
     Max angular momentum in pseudopotentials (lmaxx) =  4

     Reading input from environ.in:
     * using full solvent mode
     * setting boundary derivatives method to SCCS default
     
     file C.pbe-rrkjus.UPF: wavefunction(s)  2S 2P renormalized
     file O.pbe-rrkjus.UPF: wavefunction(s)  2S renormalized

     Subspace diagonalization in iterative solution of the eigenvalue problem:
     a serial algorithm will be used


     G-vector sticks info
     --------------------
     sticks:   dense  smooth     PW     G-vecs:    dense   smooth      PW
     Sum        2205    1099    269               330909   116965   14571

     Using Slab Decomposition



     bravais-lattice index     =            8
     lattice parameter (alat)  =      10.6881  a.u.
     unit-cell volume          =    4181.1215 (a.u.)^3
     number of atoms/cell      =           10
     number of atomic types    =            3
     number of electrons       =        89.00
     number of Kohn-Sham states=           80
     kinetic-energy cutoff     =      35.0000  Ry
     charge density cutoff     =     280.0000  Ry
     scf convergence threshold =      5.0E-09
     mixing beta               =       0.2000
     number of iterations used =            8  plain     mixing
     Exchange-correlation= SLA  PW   PBE  PBE
                           (   1   4   3   4   0   0   0)

     ================================================================================

                                  Environ Setup Summary

     ================================================================================

     Please cite

          O. Andreussi, I. Dabo and N. Marzari, J. Chem. Phys. 136, 064102 (2012)

     in publications or presentations arising from this work.

     ================================================================================

     Parameters
     ==========

     compensation onset threshold      =               0.1000E+01
     static permittivity               =                    80.00

     Solvent Boundary
     ================

     solvent mode                      =                     full
     derivatives method                =                    chain
     numerical core for derivatives    =                      fft
     switching function adopted        =                     SCCS
     density limit for vacuum region   =               0.5000E-02
     density limit for bulk solvent    =               0.1000E-03

     Electrostatic Setup
     ===================

     electrostatic problem to solve    =              generalized
     numerical solver adopted          =                       cg
     type of auxiliary density adopted =                     none
     numerical core for poisson        =                      fft
     type of pbc corrections           =                parabolic
     numerical core for corrections    =                      1da

     ================================================================================


     celldm(1)=  10.688100  celldm(2)=   0.866025  celldm(3)=   3.954220
     celldm(4)=   0.000000  celldm(5)=   0.000000  celldm(6)=   0.000000

     crystal axes: (cart. coord. in units of alat)
               a(1) = (   1.000000   0.000000   0.000000 )  
               a(2) = (   0.000000   0.866025   0.000000 )  
               a(3) = (   0.000000   0.000000   3.954220 )  

     reciprocal axes: (cart. coord. in units 2 pi/alat)
               b(1) = (  1.000000  0.000000  0.000000 )  
               b(2) = (  0.000000  1.154701  0.000000 )  
               b(3) = (  0.000000  0.000000  0.252894 )  


     PseudoPot. # 1 for C  read from file:
     MD5 check sum: c9ac5a99bc85b198593446162950cd17
     Pseudo is Ultrasoft, Zval =  4.0
     Generated by new atomic code, or converted to UPF format
     Using radial grid of  627 points,  4 beta functions with: 
                l(1) =   0
                l(2) =   0
                l(3) =   1
                l(4) =   1
     Q(r) pseudized with 0 coefficients 


     PseudoPot. # 2 for O  read from file:
     MD5 check sum: fadcf19ee70a498d3030e2e79cf929a4
     Pseudo is Ultrasoft, Zval =  6.0
     Generated by new atomic code, or converted to UPF format
     Using radial grid of 1269 points,  4 beta functions with: 
                l(1) =   0
                l(2) =   0
                l(3) =   1
                l(4) =   1
     Q(r) pseudized with 0 coefficients 


     PseudoPot. # 3 for Pt read from file:
     MD5 check sum: b34016df742983190e94d0e746921a01
     Pseudo is Ultrasoft + core correction, Zval = 10.0
     Generated by new atomic code, or converted to UPF format
     Using radial grid of 1547 points,  3 beta functions with: 
                l(1) =   1
                l(2) =   2
                l(3) =   2
     Q(r) pseudized with 0 coefficients 


     atomic species   valence    mass     pseudopotential
        C              4.00     1.00000     C ( 1.00)
        O              6.00     1.00000     O ( 1.00)
        Pt            10.00     1.00000     Pt( 1.00)

     No symmetry found


                                    s                        frac. trans.

      isym =  1     identity                                     

 cryst.   s( 1) = (     1          0          0      )
                  (     0          1          0      )
                  (     0          0          1      )

 cart.    s( 1) = (  1.0000000  0.0000000  0.0000000 )
                  (  0.0000000  1.0000000  0.0000000 )
                  (  0.0000000  0.0000000  1.0000000 )


     point group C_1 (1)    
     there are  1 classes
     the character table:

       E    
A      1.00

     the symmetry operations in each class and the name of the first element:

     E        1
          identity                                               

   Cartesian axes

     site n.     atom                  positions (alat units)
         1           C   tau(   1) = (   0.4991611   0.4347567   1.2070461  )
         2           O   tau(   2) = (   0.4991542   0.4322212   1.4109013  )
         3           Pt  tau(   3) = (   0.7542339   0.0091745   0.8413229  )
         4           Pt  tau(   4) = (   0.2441023   0.0091745   0.8413226  )
         5           Pt  tau(   5) = (   0.0000034   0.4416918   0.8391348  )
         6           Pt  tau(   6) = (   0.4991682   0.4417635   0.8776299  )
         7           Pt  tau(   7) = (   0.0000038   0.7300598   0.4308181  )
         8           Pt  tau(   8) = (   0.4991683   0.7202168   0.4447460  )
         9           Pt  tau(   9) = (   0.2524172   0.2949237   0.4386572  )
        10           Pt  tau(  10) = (   0.7459196   0.2949237   0.4386575  )

   Crystallographic axes

     site n.     atom                  positions (cryst. coord.)
         1           C   tau(   1) = (  0.4991611  0.5020141  0.3052552  )
         2           O   tau(   2) = (  0.4991542  0.4990863  0.3568090  )
         3           Pt  tau(   3) = (  0.7542339  0.0105938  0.2127658  )
         4           Pt  tau(   4) = (  0.2441023  0.0105938  0.2127658  )
         5           Pt  tau(   5) = (  0.0000034  0.5100220  0.2122125  )
         6           Pt  tau(   6) = (  0.4991682  0.5101048  0.2219477  )
         7           Pt  tau(   7) = (  0.0000038  0.8430008  0.1089515  )
         8           Pt  tau(   8) = (  0.4991683  0.8316351  0.1124738  )
         9           Pt  tau(   9) = (  0.2524172  0.3405487  0.1109339  )
        10           Pt  tau(  10) = (  0.7459196  0.3405488  0.1109340  )

     number of k points=     1  Marzari-Vanderbilt smearing, width (Ry)=  0.0300
                       cart. coord. in units 2pi/alat
        k(    1) = (   0.0000000   0.0000000   0.0000000), wk =   2.0000000

                       cryst. coord.
        k(    1) = (   0.0000000   0.0000000   0.0000000), wk =   2.0000000

     Dense  grid:   330909 G-vectors     FFT dimensions: (  60,  50, 225)

     Smooth grid:   116965 G-vectors     FFT dimensions: (  45,  36, 160)

     Dynamical RAM for                 wfc:      17.85 MB

     Dynamical RAM for     wfc (w. buffer):      17.85 MB

     Dynamical RAM for           str. fact:      15.15 MB

     Dynamical RAM for           local pot:       0.00 MB

     Dynamical RAM for          nlocal pot:      26.77 MB

     Dynamical RAM for                qrad:       1.92 MB

     Dynamical RAM for          rho,v,vnew:      30.60 MB

     Dynamical RAM for               rhoin:      10.20 MB

     Dynamical RAM for            rho*nmix:      80.79 MB

     Dynamical RAM for           G-vectors:      19.83 MB

     Dynamical RAM for          h,s,v(r/c):       1.17 MB

     Dynamical RAM for          <psi|beta>:       0.15 MB

     Dynamical RAM for                 psi:      35.69 MB

     Dynamical RAM for                hpsi:      35.69 MB

     Dynamical RAM for                spsi:      35.69 MB

     Dynamical RAM for      wfcinit/wfcrot:      35.84 MB

     Dynamical RAM for           addusdens:     575.62 MB

     Dynamical RAM for          addusforce:     648.85 MB

     Estimated static dynamical RAM per process >     168.25 MB

     Estimated max dynamical RAM per process >     897.89 MB

     Check: negative core charge=   -0.000038

     Initial potential from superposition of free atoms

     starting charge      89.9988, renormalised to      89.0000

     negative rho (up, down):  7.106E-05 0.000E+00
     Starting wfcs are   56 randomized atomic wfcs +   24 random wfcs

     total cpu time spent up to now is        7.6 secs

     Self-consistent Calculation

     iteration #  1     ecut=    35.00 Ry     beta= 0.20
     Davidson diagonalization with overlap

---- Real-time Memory Report at c_bands before calling an iterative solver
           995 MiB given to the printing process from OS
             0 MiB allocation reported by mallinfo(arena+hblkhd)
         18963 MiB available memory on the node where the printing process lives
------------------
     ethr =  1.00E-02,  avg # of iterations =  8.0

     negative rho (up, down):  7.304E-05 0.000E+00

     total cpu time spent up to now is       13.7 secs

     total energy              =    -735.17449213 Ry
     estimated scf accuracy    <       2.30979550 Ry
     electrostatic embedding   =       0.03381190 Ry
     correction to one-el term =      -0.00000000 Ry

     iteration #  2     ecut=    35.00 Ry     beta= 0.20
     Davidson diagonalization with overlap

---- Real-time Memory Report at c_bands before calling an iterative solver
          1085 MiB given to the printing process from OS
             0 MiB allocation reported by mallinfo(arena+hblkhd)
         18926 MiB available memory on the node where the printing process lives
------------------
     ethr =  2.60E-03,  avg # of iterations =  2.0

     negative rho (up, down):  1.329E-04 0.000E+00

     total cpu time spent up to now is       19.4 secs

     total energy              =    -734.89092139 Ry
     estimated scf accuracy    <      17.11811999 Ry
     electrostatic embedding   =       0.03381190 Ry
     correction to one-el term =      -0.00000000 Ry

     iteration #  3     ecut=    35.00 Ry     beta= 0.20
     Davidson diagonalization with overlap

---- Real-time Memory Report at c_bands before calling an iterative solver
          1089 MiB given to the printing process from OS
             0 MiB allocation reported by mallinfo(arena+hblkhd)
         18921 MiB available memory on the node where the printing process lives
------------------
     ethr =  2.60E-03,  avg # of iterations =  2.0

     negative rho (up, down):  1.045E-04 0.000E+00

     add environment contribution to local potential

     total cpu time spent up to now is       25.8 secs

     total energy              =    -735.53306258 Ry
     estimated scf accuracy    <       0.51751221 Ry
     electrostatic embedding   =       0.03381190 Ry
     correction to one-el term =      -0.00000000 Ry

     iteration #  4     ecut=    35.00 Ry     beta= 0.20
     Davidson diagonalization with overlap

---- Real-time Memory Report at c_bands before calling an iterative solver
          1089 MiB given to the printing process from OS
             0 MiB allocation reported by mallinfo(arena+hblkhd)
         18928 MiB available memory on the node where the printing process lives
------------------
     ethr =  5.81E-04,  avg # of iterations = 10.0

     negative rho (up, down):  1.055E-04 0.000E+00

     add environment contribution to local potential

     total cpu time spent up to now is       33.8 secs

     total energy              =    -735.32319531 Ry
     estimated scf accuracy    <       0.24303735 Ry
     electrostatic embedding   =       0.26016274 Ry
     correction to one-el term =      15.21858637 Ry

     iteration #  5     ecut=    35.00 Ry     beta= 0.20
     Davidson diagonalization with overlap

---- Real-time Memory Report at c_bands before calling an iterative solver
          1089 MiB given to the printing process from OS
             0 MiB allocation reported by mallinfo(arena+hblkhd)
         18925 MiB available memory on the node where the printing process lives
------------------
     ethr =  2.73E-04,  avg # of iterations =  6.0

     negative rho (up, down):  1.287E-04 0.000E+00

     add environment contribution to local potential

     total cpu time spent up to now is       40.8 secs

     total energy              =    -735.32405410 Ry
     estimated scf accuracy    <       0.07409876 Ry
     electrostatic embedding   =       0.24456657 Ry
     correction to one-el term =      13.51541848 Ry

     iteration #  6     ecut=    35.00 Ry     beta= 0.20
     Davidson diagonalization with overlap

---- Real-time Memory Report at c_bands before calling an iterative solver
          1090 MiB given to the printing process from OS
             0 MiB allocation reported by mallinfo(arena+hblkhd)
         18923 MiB available memory on the node where the printing process lives
------------------
     ethr =  8.33E-05,  avg # of iterations =  8.0

     negative rho (up, down):  1.448E-04 0.000E+00

     add environment contribution to local potential

     total cpu time spent up to now is       48.1 secs

     total energy              =    -735.32673705 Ry
     estimated scf accuracy    <       0.04359959 Ry
     electrostatic embedding   =       0.23161675 Ry
     correction to one-el term =      12.00732362 Ry

     iteration #  7     ecut=    35.00 Ry     beta= 0.20
     Davidson diagonalization with overlap

---- Real-time Memory Report at c_bands before calling an iterative solver
          1093 MiB given to the printing process from OS
             0 MiB allocation reported by mallinfo(arena+hblkhd)
         18916 MiB available memory on the node where the printing process lives
------------------
     c_bands:  1 eigenvalues not converged
     ethr =  4.90E-05,  avg # of iterations = 20.0

     negative rho (up, down):  1.464E-04 0.000E+00

     add environment contribution to local potential

     total cpu time spent up to now is       55.4 secs

     total energy              =    -735.31682043 Ry
     estimated scf accuracy    <       0.34351382 Ry
     electrostatic embedding   =       0.22590255 Ry
     correction to one-el term =      11.10885636 Ry

     iteration #  8     ecut=    35.00 Ry     beta= 0.20
     Davidson diagonalization with overlap

---- Real-time Memory Report at c_bands before calling an iterative solver
          1097 MiB given to the printing process from OS
             0 MiB allocation reported by mallinfo(arena+hblkhd)
         18915 MiB available memory on the node where the printing process lives
------------------
     ethr =  4.90E-05,  avg # of iterations = 13.0

     negative rho (up, down):  1.455E-04 0.000E+00

     add environment contribution to local potential

     total cpu time spent up to now is       62.7 secs

     total energy              =    -735.32095584 Ry
     estimated scf accuracy    <       0.24270030 Ry
     electrostatic embedding   =       0.22360525 Ry
     correction to one-el term =      10.93458479 Ry

     iteration #  9     ecut=    35.00 Ry     beta= 0.20
     Davidson diagonalization with overlap

---- Real-time Memory Report at c_bands before calling an iterative solver
          1101 MiB given to the printing process from OS
             0 MiB allocation reported by mallinfo(arena+hblkhd)
         18912 MiB available memory on the node where the printing process lives
------------------
     ethr =  4.90E-05,  avg # of iterations =  2.0

     negative rho (up, down):  1.470E-04 0.000E+00

     add environment contribution to local potential

     total cpu time spent up to now is       69.7 secs

     total energy              =    -735.32681703 Ry
     estimated scf accuracy    <       0.00561224 Ry
     electrostatic embedding   =       0.22165353 Ry
     correction to one-el term =      10.70672517 Ry

     iteration # 10     ecut=    35.00 Ry     beta= 0.20
     Davidson diagonalization with overlap

---- Real-time Memory Report at c_bands before calling an iterative solver
          1104 MiB given to the printing process from OS
             0 MiB allocation reported by mallinfo(arena+hblkhd)
         18907 MiB available memory on the node where the printing process lives
------------------
     ethr =  6.31E-06,  avg # of iterations =  7.0

     negative rho (up, down):  1.452E-04 0.000E+00

     add environment contribution to local potential

     total cpu time spent up to now is       75.8 secs

     total energy              =    -735.32722069 Ry
     estimated scf accuracy    <       0.00156879 Ry
     electrostatic embedding   =       0.21957631 Ry
     correction to one-el term =      10.45652324 Ry

     iteration # 11     ecut=    35.00 Ry     beta= 0.20
     Davidson diagonalization with overlap

---- Real-time Memory Report at c_bands before calling an iterative solver
          1104 MiB given to the printing process from OS
             0 MiB allocation reported by mallinfo(arena+hblkhd)
         18907 MiB available memory on the node where the printing process lives
------------------
     ethr =  1.76E-06,  avg # of iterations =  5.0

     negative rho (up, down):  1.448E-04 0.000E+00

     add environment contribution to local potential

     total cpu time spent up to now is       83.5 secs

     total energy              =    -735.32721104 Ry
     estimated scf accuracy    <       0.00120674 Ry
     electrostatic embedding   =       0.21869357 Ry
     correction to one-el term =      10.35295201 Ry

     iteration # 12     ecut=    35.00 Ry     beta= 0.20
     Davidson diagonalization with overlap

---- Real-time Memory Report at c_bands before calling an iterative solver
          1104 MiB given to the printing process from OS
             0 MiB allocation reported by mallinfo(arena+hblkhd)
         18907 MiB available memory on the node where the printing process lives
------------------
     c_bands:  1 eigenvalues not converged
     ethr =  1.36E-06,  avg # of iterations = 20.0

     negative rho (up, down):  1.449E-04 0.000E+00

     add environment contribution to local potential

     total cpu time spent up to now is       91.3 secs

     total energy              =    -735.32732244 Ry
     estimated scf accuracy    <       0.00038289 Ry
     electrostatic embedding   =       0.21730410 Ry
     correction to one-el term =      10.20429723 Ry

     iteration # 13     ecut=    35.00 Ry     beta= 0.20
     Davidson diagonalization with overlap

---- Real-time Memory Report at c_bands before calling an iterative solver
          1104 MiB given to the printing process from OS
             0 MiB allocation reported by mallinfo(arena+hblkhd)
         18907 MiB available memory on the node where the printing process lives
------------------
     ethr =  4.30E-07,  avg # of iterations =  9.0

     negative rho (up, down):  1.443E-04 0.000E+00

     add environment contribution to local potential

     total cpu time spent up to now is       98.3 secs

     total energy              =    -735.32734957 Ry
     estimated scf accuracy    <       0.00083610 Ry
     electrostatic embedding   =       0.21605674 Ry
     correction to one-el term =      10.07765310 Ry

     iteration # 14     ecut=    35.00 Ry     beta= 0.20
     Davidson diagonalization with overlap

---- Real-time Memory Report at c_bands before calling an iterative solver
          1104 MiB given to the printing process from OS
             0 MiB allocation reported by mallinfo(arena+hblkhd)
         18908 MiB available memory on the node where the printing process lives
------------------
     ethr =  4.30E-07,  avg # of iterations =  1.0

     negative rho (up, down):  1.437E-04 0.000E+00

     add environment contribution to local potential

     total cpu time spent up to now is      104.6 secs

     total energy              =    -735.32737734 Ry
     estimated scf accuracy    <       0.00015232 Ry
     electrostatic embedding   =       0.21539466 Ry
     correction to one-el term =      10.01729107 Ry

     iteration # 15     ecut=    35.00 Ry     beta= 0.20
     Davidson diagonalization with overlap

---- Real-time Memory Report at c_bands before calling an iterative solver
          1104 MiB given to the printing process from OS
             0 MiB allocation reported by mallinfo(arena+hblkhd)
         18906 MiB available memory on the node where the printing process lives
------------------
     ethr =  1.71E-07,  avg # of iterations =  1.0

     negative rho (up, down):  1.430E-04 0.000E+00

     add environment contribution to local potential

     total cpu time spent up to now is      111.6 secs

     total energy              =    -735.32738998 Ry
     estimated scf accuracy    <       0.00000548 Ry
     electrostatic embedding   =       0.21502403 Ry
     correction to one-el term =       9.98456062 Ry

     iteration # 16     ecut=    35.00 Ry     beta= 0.20
     Davidson diagonalization with overlap

---- Real-time Memory Report at c_bands before calling an iterative solver
          1104 MiB given to the printing process from OS
             0 MiB allocation reported by mallinfo(arena+hblkhd)
         18906 MiB available memory on the node where the printing process lives
------------------
     ethr =  6.16E-09,  avg # of iterations =  2.0

     negative rho (up, down):  1.430E-04 0.000E+00

     add environment contribution to local potential

     total cpu time spent up to now is      118.4 secs

     total energy              =    -735.32739572 Ry
     estimated scf accuracy    <       0.00006925 Ry
     electrostatic embedding   =       0.21489709 Ry
     correction to one-el term =       9.97831956 Ry

     iteration # 17     ecut=    35.00 Ry     beta= 0.20
     Davidson diagonalization with overlap

---- Real-time Memory Report at c_bands before calling an iterative solver
          1104 MiB given to the printing process from OS
             0 MiB allocation reported by mallinfo(arena+hblkhd)
         18906 MiB available memory on the node where the printing process lives
------------------
     ethr =  6.16E-09,  avg # of iterations =  1.0

     negative rho (up, down):  1.428E-04 0.000E+00

     add environment contribution to local potential

     total cpu time spent up to now is      125.0 secs

     total energy              =    -735.32739559 Ry
     estimated scf accuracy    <       0.00000230 Ry
     electrostatic embedding   =       0.21484825 Ry
     correction to one-el term =       9.97187457 Ry

     iteration # 18     ecut=    35.00 Ry     beta= 0.20
     Davidson diagonalization with overlap

---- Real-time Memory Report at c_bands before calling an iterative solver
          1104 MiB given to the printing process from OS
             0 MiB allocation reported by mallinfo(arena+hblkhd)
         18906 MiB available memory on the node where the printing process lives
------------------
     ethr =  2.59E-09,  avg # of iterations =  2.0

     negative rho (up, down):  1.429E-04 0.000E+00

     add environment contribution to local potential

     total cpu time spent up to now is      133.1 secs

     total energy              =    -735.32740359 Ry
     estimated scf accuracy    <       0.00001244 Ry
     electrostatic embedding   =       0.21455714 Ry
     correction to one-el term =       9.95034051 Ry

     iteration # 19     ecut=    35.00 Ry     beta= 0.20
     Davidson diagonalization with overlap

---- Real-time Memory Report at c_bands before calling an iterative solver
          1104 MiB given to the printing process from OS
             0 MiB allocation reported by mallinfo(arena+hblkhd)
         18907 MiB available memory on the node where the printing process lives
------------------
     ethr =  2.59E-09,  avg # of iterations =  2.0

     negative rho (up, down):  1.429E-04 0.000E+00

     add environment contribution to local potential

     total cpu time spent up to now is      138.8 secs

     total energy              =    -735.32740545 Ry
     estimated scf accuracy    <       0.00000023 Ry
     electrostatic embedding   =       0.21445116 Ry
     correction to one-el term =       9.94126965 Ry

     iteration # 20     ecut=    35.00 Ry     beta= 0.20
     Davidson diagonalization with overlap

---- Real-time Memory Report at c_bands before calling an iterative solver
          1104 MiB given to the printing process from OS
             0 MiB allocation reported by mallinfo(arena+hblkhd)
         18907 MiB available memory on the node where the printing process lives
------------------
     ethr =  2.55E-10,  avg # of iterations =  2.0

     negative rho (up, down):  1.430E-04 0.000E+00

     add environment contribution to local potential

     total cpu time spent up to now is      146.4 secs

     total energy              =    -735.32740574 Ry
     estimated scf accuracy    <       0.00000013 Ry
     electrostatic embedding   =       0.21440152 Ry
     correction to one-el term =       9.93695110 Ry

     iteration # 21     ecut=    35.00 Ry     beta= 0.20
     Davidson diagonalization with overlap

---- Real-time Memory Report at c_bands before calling an iterative solver
          1104 MiB given to the printing process from OS
             0 MiB allocation reported by mallinfo(arena+hblkhd)
         18907 MiB available memory on the node where the printing process lives
------------------
     ethr =  1.51E-10,  avg # of iterations =  3.0

     negative rho (up, down):  1.431E-04 0.000E+00

     add environment contribution to local potential

     total cpu time spent up to now is      153.8 secs

     total energy              =    -735.32740593 Ry
     estimated scf accuracy    <       0.00000086 Ry
     electrostatic embedding   =       0.21434842 Ry
     correction to one-el term =       9.93236562 Ry

     iteration # 22     ecut=    35.00 Ry     beta= 0.20
     Davidson diagonalization with overlap

---- Real-time Memory Report at c_bands before calling an iterative solver
          1104 MiB given to the printing process from OS
             0 MiB allocation reported by mallinfo(arena+hblkhd)
         18906 MiB available memory on the node where the printing process lives
------------------
     ethr =  1.51E-10,  avg # of iterations =  2.0

     negative rho (up, down):  1.432E-04 0.000E+00

     add environment contribution to local potential

     total cpu time spent up to now is      160.8 secs

     total energy              =    -735.32740589 Ry
     estimated scf accuracy    <       0.00000047 Ry
     electrostatic embedding   =       0.21435295 Ry
     correction to one-el term =       9.93319701 Ry

     iteration # 23     ecut=    35.00 Ry     beta= 0.20
     Davidson diagonalization with overlap

---- Real-time Memory Report at c_bands before calling an iterative solver
          1104 MiB given to the printing process from OS
             0 MiB allocation reported by mallinfo(arena+hblkhd)
         18906 MiB available memory on the node where the printing process lives
------------------
     ethr =  1.51E-10,  avg # of iterations =  2.0

     negative rho (up, down):  1.433E-04 0.000E+00

     add environment contribution to local potential

     total cpu time spent up to now is      167.4 secs

     total energy              =    -735.32740593 Ry
     estimated scf accuracy    <       0.00000011 Ry
     electrostatic embedding   =       0.21434766 Ry
     correction to one-el term =       9.93297263 Ry

     iteration # 24     ecut=    35.00 Ry     beta= 0.20
     Davidson diagonalization with overlap

---- Real-time Memory Report at c_bands before calling an iterative solver
          1104 MiB given to the printing process from OS
             0 MiB allocation reported by mallinfo(arena+hblkhd)
         18905 MiB available memory on the node where the printing process lives
------------------
     ethr =  1.28E-10,  avg # of iterations =  2.0

     negative rho (up, down):  1.438E-04 0.000E+00

     the potential shift due to the Gaussian-smeared nuclei is    -0.4600 ev

     total cpu time spent up to now is      171.4 secs

     End of self-consistent calculation

          k = 0.0000 0.0000 0.0000 ( 14571 PWs)   bands (ev):

   -29.7559 -16.2948 -14.7097 -13.4333 -13.2533 -12.6420 -12.6175 -12.5480
   -12.3672 -11.5040 -11.3830 -11.2569 -11.0421 -11.0178 -10.9399 -10.8057
   -10.1037 -10.0778 -10.0173  -9.8255  -9.8048  -9.7543  -9.7175  -9.6704
    -9.6521  -9.4687  -9.4400  -9.3123  -9.2239  -8.9896  -8.8986  -8.1218
    -8.0178  -7.7314  -7.5122  -7.4505  -7.3814  -7.2368  -7.0505  -6.9651
    -6.7967  -6.7826  -6.5701  -6.5696  -6.5323  -6.3725  -6.2101  -5.0550
    -4.8368  -4.7567  -4.0767  -3.4387  -3.2780  -2.2523  -1.9774  -1.9407
    -1.2801  -0.9493  -0.6399  -0.2735  -0.1558   0.4341   0.8653   1.1107
     1.6322   1.9271   2.1339   2.3476   2.4469   2.7013   3.3060   3.4340
     3.5849   3.6738   4.1014   4.3447   4.4062   4.4487   4.7430   4.8216

     occupation numbers 
     1.0000   1.0000   1.0000   1.0000   1.0000   1.0000   1.0000   1.0000
     1.0000   1.0000   1.0000   1.0000   1.0000   1.0000   1.0000   1.0000
     1.0000   1.0000   1.0000   1.0000   1.0000   1.0000   1.0000   1.0000
     1.0000   1.0000   1.0000   1.0000   1.0000   1.0000   1.0000   1.0000
     1.0000   1.0006   1.0063   1.0107   1.0181   1.0440   1.0812   1.0800
     0.9882   0.9737   0.6471   0.6463   0.5776   0.3050   0.1210   0.0000
     0.0000   0.0000   0.0000   0.0000   0.0000   0.0000   0.0000   0.0000
     0.0000   0.0000   0.0000   0.0000   0.0000   0.0000   0.0000   0.0000
     0.0000   0.0000   0.0000   0.0000   0.0000   0.0000   0.0000   0.0000
     0.0000   0.0000   0.0000   0.0000   0.0000   0.0000   0.0000   0.0000

     the Fermi energy is    -6.4331 ev

!    total energy              =    -735.32740590 Ry
     estimated scf accuracy    <          2.8E-09 Ry
     smearing contrib. (-TS)   =      -0.00075290 Ry
     internal energy E=F+TS    =    -735.32665300 Ry

     The total energy is F=E-TS. E is the sum of the following terms:
     one-electron contribution =   -3942.97211643 Ry
     hartree contribution      =    2002.99610614 Ry
     xc contribution           =    -378.70258986 Ry
     ewald contribution        =    1573.20467954 Ry
     electrostatic embedding   =       0.21434712 Ry
     correction to one-el term =       9.93292049 Ry

     WARNING: you are using the parabolic pbc correction;
              the potential shift above must be added to 
              band and Fermi energies.

     convergence has been achieved in  24 iterations

     negative rho (up, down):  1.438E-04 0.000E+00
     The dielectric solvent contribution to forces
     atom    1 type  1   force =     0.00006343    0.00582100   -0.18304845
     atom    2 type  2   force =     0.00001593    0.00423549   -0.59179158
     atom    3 type  3   force =    -0.00081256   -0.00378309    0.05208038
     atom    4 type  3   force =     0.00082669   -0.00379744    0.05215713
     atom    5 type  3   force =    -0.00015380    0.00210455    0.02988095
     atom    6 type  3   force =     0.00008063    0.00502791   -0.01246677
     atom    7 type  3   force =    -0.00047757    0.00753091    0.04357703
     atom    8 type  3   force =     0.00039691    0.00885452    0.04530662
     atom    9 type  3   force =    -0.00904251   -0.00721265    0.02778137
     atom   10 type  3   force =     0.00907484   -0.00725525    0.02715925


     Forces acting on atoms (cartesian axes, Ry/au):

     atom    1 type  1   force =    -0.00005288   -0.00446304   -0.04114220
     atom    2 type  2   force =     0.00000345    0.00142285   -0.32623778
     atom    3 type  3   force =     0.00039185    0.01401675   -0.04490707
     atom    4 type  3   force =     0.00066143    0.01430806   -0.04418582
     atom    5 type  3   force =    -0.00179441    0.01276721   -0.08011045
     atom    6 type  3   force =     0.00079453    0.00782495   -0.05872811
     atom    7 type  3   force =    -0.00151735   -0.01436580    0.14845432
     atom    8 type  3   force =     0.00045681   -0.02024357    0.15646625
     atom    9 type  3   force =     0.01746509   -0.00581338    0.14496329
     atom   10 type  3   force =    -0.01640852   -0.00545402    0.14542757
     The non-local contrib.  to forces
     atom    1 type  1   force =    -0.00008200   -0.00750550    0.58226253
     atom    2 type  2   force =     0.00018458    0.03855181   -2.92669655
     atom    3 type  3   force =    -0.02654080   -0.00122467   -0.10393307
     atom    4 type  3   force =     0.02664515   -0.00105650   -0.10439146
     atom    5 type  3   force =     0.00100021    0.00437107   -0.15555913
     atom    6 type  3   force =    -0.00081137   -0.01670229    0.50044974
     atom    7 type  3   force =     0.00061417    0.02491328    0.06494513
     atom    8 type  3   force =    -0.00091618   -0.01815192    0.09231944
     atom    9 type  3   force =     0.01904356   -0.00383609    0.05463003
     atom   10 type  3   force =    -0.01894922   -0.00350968    0.05342750
     The ionic contribution  to forces
     atom    1 type  1   force =     0.00636806    0.05296760   19.96835427
     atom    2 type  2   force =     0.00226724   -0.13041391   48.33963012
     atom    3 type  3   force =     0.50324609   -0.09020628   30.03736972
     atom    4 type  3   force =    -0.49292694   -0.08303178   30.06216876
     atom    5 type  3   force =    -0.07802400    0.12039865   29.68099553
     atom    6 type  3   force =     0.05586768    0.10046245   29.12582959
     atom    7 type  3   force =    -0.06942211   -0.08855591  -48.10896481
     atom    8 type  3   force =     0.05843526    0.13450123  -45.70999247
     atom    9 type  3   force =     0.08482129   -0.01166389  -46.71013044
     atom   10 type  3   force =    -0.07063256   -0.00445817  -46.68526027
     The local contribution  to forces
     atom    1 type  1   force =    -0.00642043   -0.05573936  -20.40874637
     atom    2 type  2   force =    -0.00248232    0.08905396  -45.14743814
     atom    3 type  3   force =    -0.47819484    0.11277113  -30.02001063
     atom    4 type  3   force =     0.46895001    0.10564469  -30.04388664
     atom    5 type  3   force =     0.07492329   -0.11039280  -29.63132733
     atom    6 type  3   force =    -0.05410292   -0.07725023  -29.74136115
     atom    7 type  3   force =     0.06725654    0.03418597   48.13519744
     atom    8 type  3   force =    -0.05711767   -0.14107320   45.71253468
     atom    9 type  3   force =    -0.08471133    0.01266491   46.75563637
     atom   10 type  3   force =     0.07161158    0.00550719   46.73288479
     The core correction contribution to forces
     atom    1 type  1   force =     0.00000000    0.00000000    0.00000000
     atom    2 type  2   force =     0.00000000    0.00000000    0.00000000
     atom    3 type  3   force =     0.00270356   -0.00353982   -0.01047848
     atom    4 type  3   force =    -0.00287884   -0.00344999   -0.01029984
     atom    5 type  3   force =     0.00044373   -0.00370450   -0.00414447
     atom    6 type  3   force =    -0.00025896   -0.00370162    0.06877494
     atom    7 type  3   force =     0.00049679    0.00755144    0.01364777
     atom    8 type  3   force =    -0.00036221   -0.00437468    0.01619927
     atom    9 type  3   force =     0.00734571    0.00425187    0.01700672
     atom   10 type  3   force =    -0.00754064    0.00427981    0.01718094
     The Hubbard contrib.    to forces
     atom    1 type  1   force =     0.00000000    0.00000000    0.00000000
     atom    2 type  2   force =     0.00000000    0.00000000    0.00000000
     atom    3 type  3   force =     0.00000000    0.00000000    0.00000000
     atom    4 type  3   force =     0.00000000    0.00000000    0.00000000
     atom    5 type  3   force =     0.00000000    0.00000000    0.00000000
     atom    6 type  3   force =     0.00000000    0.00000000    0.00000000
     atom    7 type  3   force =     0.00000000    0.00000000    0.00000000
     atom    8 type  3   force =     0.00000000    0.00000000    0.00000000
     atom    9 type  3   force =     0.00000000    0.00000000    0.00000000
     atom   10 type  3   force =     0.00000000    0.00000000    0.00000000
     The SCF correction term to forces
     atom    1 type  1   force =     0.00000018   -0.00000106   -0.00000292
     atom    2 type  2   force =     0.00000014    0.00000123    0.00001963
     atom    3 type  3   force =    -0.00002747    0.00000521    0.00002628
     atom    4 type  3   force =     0.00002747    0.00000483    0.00002749
     atom    5 type  3   force =    -0.00000173   -0.00000404    0.00000527
     atom    6 type  3   force =     0.00000158   -0.00000554    0.00000682
     atom    7 type  3   force =    -0.00000306    0.00001423    0.00001303
     atom    8 type  3   force =     0.00000282    0.00000621    0.00005997
     atom    9 type  3   force =    -0.00000951   -0.00001179    0.00000050
     atom   10 type  3   force =     0.00000960   -0.00001219   -0.00000338

     Total force =     0.461033     Total SCF correction =     0.000090


     init_run     :      7.19s CPU      7.46s WALL (       1 calls)
     electrons    :    152.87s CPU    163.89s WALL (       1 calls)
     forces       :      6.06s CPU      6.29s WALL (       1 calls)

     Called by init_run:
     wfcinit      :      0.56s CPU      0.57s WALL (       1 calls)
     wfcinit:atom :      0.01s CPU      0.01s WALL (       1 calls)
     wfcinit:wfcr :      0.53s CPU      0.54s WALL (       1 calls)
     potinit      :      2.61s CPU      2.63s WALL (       1 calls)
     hinit0       :      3.28s CPU      3.31s WALL (       1 calls)

     Called by electrons:
     c_bands      :     45.46s CPU     46.66s WALL (      24 calls)
     sum_band     :     26.31s CPU     30.25s WALL (      24 calls)
     v_of_rho     :      7.46s CPU      8.84s WALL (      25 calls)
     v_h          :      0.29s CPU      0.29s WALL (      25 calls)
     v_xc         :      7.49s CPU      8.88s WALL (      26 calls)
     newd         :     15.87s CPU     20.13s WALL (      25 calls)
     mix_rho      :      0.93s CPU      0.95s WALL (      24 calls)

     Called by c_bands:
     init_us_2    :      0.35s CPU      0.36s WALL (      49 calls)
     init_us_2:cp :      0.35s CPU      0.36s WALL (      49 calls)
     cegterg      :     44.48s CPU     45.67s WALL (      24 calls)

     Called by sum_band:
     sum_band:wei :      0.00s CPU      0.00s WALL (      24 calls)
     sum_band:loo :      7.03s CPU      7.27s WALL (      24 calls)
     sum_band:buf :      0.00s CPU      0.00s WALL (      24 calls)
     sum_band:ini :      0.18s CPU      0.19s WALL (      24 calls)
     sum_band:cal :      0.76s CPU      0.76s WALL (      24 calls)
     sum_band:bec :      0.00s CPU      0.00s WALL (      24 calls)
     addusdens    :     18.92s CPU     22.60s WALL (      24 calls)
     addusd:skk   :      0.29s CPU      0.38s WALL (      72 calls)
     addusd:dgemm :      1.77s CPU      5.09s WALL (      72 calls)
     addusd:qvan2 :     13.57s CPU     13.61s WALL (      72 calls)

     Called by *egterg:
     cdiaghg      :      0.94s CPU      0.94s WALL (     156 calls)
     cegterg:over :      3.16s CPU      3.16s WALL (     132 calls)
     cegterg:upda :      1.89s CPU      1.98s WALL (     132 calls)
     cegterg:last :      4.24s CPU      4.24s WALL (      48 calls)
     h_psi        :     31.03s CPU     31.96s WALL (     157 calls)
     s_psi        :      2.02s CPU      2.08s WALL (     157 calls)
     g_psi        :      0.18s CPU      0.18s WALL (     132 calls)

     Called by h_psi:
     h_psi:calbec :      2.07s CPU      2.07s WALL (     157 calls)
     vloc_psi     :     26.66s CPU     27.49s WALL (     157 calls)
     add_vuspsi   :      2.14s CPU      2.14s WALL (     157 calls)

     General routines
     calbec       :      2.99s CPU      3.00s WALL (     185 calls)
     fft          :      2.38s CPU      2.76s WALL (     334 calls)
     ffts         :      0.14s CPU      0.14s WALL (      49 calls)
     fftw         :     28.43s CPU     29.42s WALL (   10878 calls)
     interpolate  :      0.33s CPU      0.33s WALL (      25 calls)

     Parallel routines

     Environ routines

     PWSCF        :   2m46.23s CPU   2m57.77s WALL


   This run was terminated on:  21:58:31   2May2022            

=------------------------------------------------------------------------------=
   JOB DONE.
=------------------------------------------------------------------------------=
