
     Program PWSCF v.6.7MaX starts on 23Sep2021 at 21:29:35 

     This program is part of the open-source Quantum ESPRESSO suite
     for quantum simulation of materials; please cite
         "P. Giannozzi et al., J. Phys.:Condens. Matter 21 395502 (2009);
         "P. Giannozzi et al., J. Phys.:Condens. Matter 29 465901 (2017);
          URL http://www.quantum-espresso.org", 
     in publications or presentations arising from this work. More details at
     http://www.quantum-espresso.org/quote

     Parallel version (MPI), running on     8 processors

     MPI processes distributed on     1 nodes
     R & G space division:  proc/nbgrp/npool/nimage =       8
     Waiting for input...
     Reading input from standard input

     Current dimensions of program PWSCF are:
     Max number of different atomic species (ntypx) = 10
     Max number of k-points (npk) =  40000
     Max angular momentum in pseudopotentials (lmaxx) =  3

     Reading input from environ.in

     ================================================================================

     Reading ENVIRON namelist

     Reading BOUNDARY namelist

     Checking boundary derivatives
     derivatives               = chain          ! SCCS default

     Setting up water environment (solvent mode = electronic)
     env_static_permittivity   = 78.3D0         
     env_optical_permittivity  = 1.D0           
     env_surface_tension       = 50.D0          
     env_pressure              = -0.35D0        
     rhomax                    = 0.005          
     rhomin                    = 0.0001         

     Reading ELECTROSTATIC namelist

     Setting up electrostatic problem
     problem                   = generalized    
     solver                    = cg             

     Checking PBC correction
     pbc_correction            = none           ! default

     ================================================================================
 
     file H.pbe-rrkjus.UPF: wavefunction(s)  1S renormalized
     file O.pbe-rrkjus.UPF: wavefunction(s)  2S renormalized

     Subspace diagonalization in iterative solution of the eigenvalue problem:
     a serial algorithm will be used

 
     Parallelization info
     --------------------
     sticks:   dense  smooth     PW     G-vecs:    dense   smooth      PW
     Min        1950     975    242               183178    64767    8072
     Max        1952     977    243               183179    64769    8075
     Sum       15613    7809   1941              1465425   518139   64589
 


     bravais-lattice index     =            0
     lattice parameter (alat)  =      26.4562  a.u.
     unit-cell volume          =   18517.4299 (a.u.)^3
     number of atoms/cell      =           30
     number of atomic types    =            2
     number of electrons       =        80.00
     number of Kohn-Sham states=           40
     kinetic-energy cutoff     =      35.0000  Ry
     charge density cutoff     =     280.0000  Ry
     scf convergence threshold =      2.0E-08
     mixing beta               =       0.3000
     number of iterations used =            8  plain     mixing
     Exchange-correlation= SLA  PW   PBE  PBE
                           (   1   4   3   4   0   0   0)
 

     Environ Module
     ==============

     Please cite
         O. Andreussi, I. Dabo and N. Marzari, J. Chem. Phys. 136, 064102 (2012)         
     in publications or presentations arising from this work.

     compensation onset threshold      =               0.1000E+01
     static permittivity               =                    78.30
     epsilon calculation mode          =               electronic
     surface tension in input (dyn/cm) =                    50.00
     surface tension in internal units =               0.6423E-04
     external pressure in input (GPa)  =                    -0.35
     external pressure in inter. units =              -0.2379E-04

     Electrostatic Setup
     -------------------
     electrostatic problem to solve    = generalized             
     numerical solver adopted          = cg                      
     type of auxiliary density adopted = none                    
     type of core tool for poisson     = fft                     


     Assuming isolated system, Martyna-Tuckerman method


     celldm(1)=  26.456166  celldm(2)=   0.000000  celldm(3)=   0.000000
     celldm(4)=   0.000000  celldm(5)=   0.000000  celldm(6)=   0.000000

     crystal axes: (cart. coord. in units of alat)
               a(1) = (   1.000000   0.000000   0.000000 )  
               a(2) = (   0.000000   1.000000   0.000000 )  
               a(3) = (   0.000000   0.000000   1.000000 )  

     reciprocal axes: (cart. coord. in units 2 pi/alat)
               b(1) = (  1.000000  0.000000  0.000000 )  
               b(2) = (  0.000000  1.000000  0.000000 )  
               b(3) = (  0.000000  0.000000  1.000000 )  


     PseudoPot. # 1 for H  read from file:
     /home/simplogic86/Work/QE1/pseudo/H.pbe-rrkjus.UPF
     MD5 check sum: 2d52a7f45632fd764c17cc6affed14c8
     Pseudo is Ultrasoft, Zval =  1.0
     Generated by new atomic code, or converted to UPF format
     Using radial grid of 1061 points,  2 beta functions with: 
                l(1) =   0
                l(2) =   0
     Q(r) pseudized with 0 coefficients 


     PseudoPot. # 2 for O  read from file:
     /home/simplogic86/Work/QE1/pseudo/O.pbe-rrkjus.UPF
     MD5 check sum: fadcf19ee70a498d3030e2e79cf929a4
     Pseudo is Ultrasoft, Zval =  6.0
     Generated by new atomic code, or converted to UPF format
     Using radial grid of 1269 points,  4 beta functions with: 
                l(1) =   0
                l(2) =   0
                l(3) =   1
                l(4) =   1
     Q(r) pseudized with 0 coefficients 


     atomic species   valence    mass     pseudopotential
        H              1.00     1.00794     H ( 1.00)
        O              6.00    15.99940     O ( 1.00)

     No symmetry found


                                    s                        frac. trans.

      isym =  1     identity                                     

 cryst.   s( 1) = (     1          0          0      )
                  (     0          1          0      )
                  (     0          0          1      )

 cart.    s( 1) = (  1.0000000  0.0000000  0.0000000 )
                  (  0.0000000  1.0000000  0.0000000 )
                  (  0.0000000  0.0000000  1.0000000 )


   Cartesian axes

     site n.     atom                  positions (alat units)
         1           O   tau(   1) = (   0.6957700   0.6855114   0.4644188  )
         2           H   tau(   2) = (   0.7306486   0.7273686   0.4222045  )
         3           H   tau(   3) = (   0.6343129   0.7176614   0.4766545  )
         4           O   tau(   4) = (   0.6657129   0.4864757   0.4344760  )
         5           H   tau(   5) = (   0.6785629   0.5550186   0.4363974  )
         6           H   tau(   6) = (   0.6921843   0.4624329   0.4944974  )
         7           O   tau(   7) = (   0.5221557   0.7567686   0.5198402  )
         8           H   tau(   8) = (   0.4897343   0.8122043   0.4947402  )
         9           H   tau(   9) = (   0.4745771   0.7035614   0.5154760  )
        10           O   tau(  10) = (   0.4803486   0.4447186   0.4503402  )
        11           H   tau(  11) = (   0.5483914   0.4622257   0.4388545  )
        12           H   tau(  12) = (   0.4614343   0.4068186   0.3959688  )
        13           O   tau(  13) = (   0.7065986   0.4282186   0.6234688  )
        14           H   tau(  14) = (   0.6385200   0.4135114   0.6381188  )
        15           H   tau(  15) = (   0.7430771   0.3754971   0.6487474  )
        16           O   tau(  16) = (   0.5196843   0.3976686   0.6452045  )
        17           H   tau(  17) = (   0.4871771   0.4506186   0.6772760  )
        18           H   tau(  18) = (   0.4966557   0.4010971   0.5794974  )
        19           O   tau(  19) = (   0.5641700   0.7000971   0.7160760  )
        20           H   tau(  20) = (   0.5505343   0.7358757   0.6580117  )
        21           H   tau(  21) = (   0.6284843   0.6739471   0.7040474  )
        22           O   tau(  22) = (   0.4318486   0.5647900   0.7140545  )
        23           H   tau(  23) = (   0.3939557   0.5713900   0.7712474  )
        24           H   tau(  24) = (   0.4836414   0.6137329   0.7196188  )
        25           O   tau(  25) = (   0.3983414   0.6136900   0.5211760  )
        26           H   tau(  26) = (   0.4211414   0.5564900   0.4880688  )
        27           H   tau(  27) = (   0.3953843   0.5944543   0.5882688  )
        28           O   tau(  28) = (   0.7377414   0.6260686   0.6592688  )
        29           H   tau(  29) = (   0.7335271   0.5566686   0.6534545  )
        30           H   tau(  30) = (   0.7385414   0.6482757   0.5933831  )

   Crystallographic axes

     site n.     atom                  positions (cryst. coord.)
         1           O   tau(   1) = (  0.6957700  0.6855114  0.4644188  )
         2           H   tau(   2) = (  0.7306486  0.7273686  0.4222045  )
         3           H   tau(   3) = (  0.6343129  0.7176614  0.4766545  )
         4           O   tau(   4) = (  0.6657129  0.4864757  0.4344760  )
         5           H   tau(   5) = (  0.6785629  0.5550186  0.4363974  )
         6           H   tau(   6) = (  0.6921843  0.4624329  0.4944974  )
         7           O   tau(   7) = (  0.5221557  0.7567686  0.5198402  )
         8           H   tau(   8) = (  0.4897343  0.8122043  0.4947402  )
         9           H   tau(   9) = (  0.4745771  0.7035614  0.5154760  )
        10           O   tau(  10) = (  0.4803486  0.4447186  0.4503402  )
        11           H   tau(  11) = (  0.5483914  0.4622257  0.4388545  )
        12           H   tau(  12) = (  0.4614343  0.4068186  0.3959688  )
        13           O   tau(  13) = (  0.7065986  0.4282186  0.6234688  )
        14           H   tau(  14) = (  0.6385200  0.4135114  0.6381188  )
        15           H   tau(  15) = (  0.7430771  0.3754971  0.6487474  )
        16           O   tau(  16) = (  0.5196843  0.3976686  0.6452045  )
        17           H   tau(  17) = (  0.4871771  0.4506186  0.6772760  )
        18           H   tau(  18) = (  0.4966557  0.4010971  0.5794974  )
        19           O   tau(  19) = (  0.5641700  0.7000971  0.7160760  )
        20           H   tau(  20) = (  0.5505343  0.7358757  0.6580117  )
        21           H   tau(  21) = (  0.6284843  0.6739471  0.7040474  )
        22           O   tau(  22) = (  0.4318486  0.5647900  0.7140545  )
        23           H   tau(  23) = (  0.3939557  0.5713900  0.7712474  )
        24           H   tau(  24) = (  0.4836414  0.6137329  0.7196188  )
        25           O   tau(  25) = (  0.3983414  0.6136900  0.5211760  )
        26           H   tau(  26) = (  0.4211414  0.5564900  0.4880688  )
        27           H   tau(  27) = (  0.3953843  0.5944543  0.5882688  )
        28           O   tau(  28) = (  0.7377414  0.6260686  0.6592688  )
        29           H   tau(  29) = (  0.7335271  0.5566686  0.6534545  )
        30           H   tau(  30) = (  0.7385414  0.6482757  0.5933831  )

     number of k points=     1
                       cart. coord. in units 2pi/alat
        k(    1) = (   0.0000000   0.0000000   0.0000000), wk =   2.0000000

                       cryst. coord.
        k(    1) = (   0.0000000   0.0000000   0.0000000), wk =   2.0000000

     Dense  grid:  1465425 G-vectors     FFT dimensions: ( 144, 144, 144)

     Smooth grid:   518139 G-vectors     FFT dimensions: ( 100, 100, 100)

     Dynamical RAM for                 wfc:       4.94 MB

     Dynamical RAM for     wfc (w. buffer):       4.94 MB

     Dynamical RAM for           str. fact:       5.59 MB

     Dynamical RAM for           local pot:       0.00 MB

     Dynamical RAM for          nlocal pot:      14.82 MB

     Dynamical RAM for                qrad:       0.77 MB

     Dynamical RAM for          rho,v,vnew:      16.93 MB

     Dynamical RAM for               rhoin:       5.64 MB

     Dynamical RAM for            rho*nmix:      44.72 MB

     Dynamical RAM for           G-vectors:      10.98 MB

     Dynamical RAM for          h,s,v(r/c):       0.29 MB

     Dynamical RAM for          <psi|beta>:       0.07 MB

     Dynamical RAM for                 psi:       9.88 MB

     Dynamical RAM for                hpsi:       9.88 MB

     Dynamical RAM for                spsi:       9.88 MB

     Dynamical RAM for      wfcinit/wfcrot:      14.90 MB

     Dynamical RAM for           addusdens:     176.09 MB

     Dynamical RAM for          addusforce:     283.72 MB

     Estimated static dynamical RAM per process >     127.01 MB

     Estimated max dynamical RAM per process >     410.73 MB

     Estimated total dynamical RAM >       3.21 GB

     Initial potential from superposition of free atoms

     starting charge   78.07590, renormalised to   80.00000

     negative rho (up, down):  1.482E-03 0.000E+00
     Starting wfcs are   60 randomized atomic wfcs

     total cpu time spent up to now is        8.8 secs

     Self-consistent Calculation

     iteration #  1     ecut=    35.00 Ry     beta= 0.30
     Davidson diagonalization with overlap
     ethr =  1.00E-02,  avg # of iterations =  3.0

     negative rho (up, down):  9.343E-04 0.000E+00

     total cpu time spent up to now is       15.5 secs

     total energy              =    -343.65798282 Ry
     estimated scf accuracy    <       5.45425100 Ry
     electrostatic embedding   =       0.00000000 Ry
     cavitation energy         =       0.11083026 Ry
     PV energy                 =      -0.15356752 Ry
     correction to one-el term =       0.00000000 Ry

     iteration #  2     ecut=    35.00 Ry     beta= 0.30
     Davidson diagonalization with overlap
     ethr =  6.82E-03,  avg # of iterations =  1.0

     negative rho (up, down):  1.476E-03 0.000E+00

     total cpu time spent up to now is       22.1 secs

     total energy              =    -342.31573291 Ry
     estimated scf accuracy    <       2.12817613 Ry
     electrostatic embedding   =       0.00000000 Ry
     cavitation energy         =       0.09644074 Ry
     PV energy                 =      -0.12646155 Ry
     correction to one-el term =       0.00000000 Ry

     iteration #  3     ecut=    35.00 Ry     beta= 0.30
     Davidson diagonalization with overlap
     ethr =  2.66E-03,  avg # of iterations =  3.0

     negative rho (up, down):  1.386E-03 0.000E+00

     add environment contribution to local potential

     total cpu time spent up to now is       35.1 secs

     total energy              =    -342.97246911 Ry
     estimated scf accuracy    <       0.61390409 Ry
     electrostatic embedding   =       0.00000000 Ry
     cavitation energy         =       0.06362381 Ry
     PV energy                 =      -0.06404476 Ry
     correction to one-el term =       0.00000000 Ry

     iteration #  4     ecut=    35.00 Ry     beta= 0.30
     Davidson diagonalization with overlap
     ethr =  7.67E-04,  avg # of iterations =  3.0

     negative rho (up, down):  2.674E-03 0.000E+00

     add environment contribution to local potential

     total cpu time spent up to now is       53.6 secs

     total energy              =    -343.00899011 Ry
     estimated scf accuracy    <       0.42732030 Ry
     electrostatic embedding   =      -0.10758507 Ry
     cavitation energy         =       0.07062829 Ry
     PV energy                 =      -0.07775449 Ry
     correction to one-el term =      -6.51329637 Ry

     iteration #  5     ecut=    35.00 Ry     beta= 0.30
     Davidson diagonalization with overlap
     ethr =  5.34E-04,  avg # of iterations =  1.0

     negative rho (up, down):  1.342E-03 0.000E+00

     add environment contribution to local potential

     total cpu time spent up to now is       70.8 secs

     total energy              =    -343.04293262 Ry
     estimated scf accuracy    <       0.04248540 Ry
     electrostatic embedding   =      -0.07509735 Ry
     cavitation energy         =       0.05807728 Ry
     PV energy                 =      -0.04938970 Ry
     correction to one-el term =       0.17225301 Ry

     iteration #  6     ecut=    35.00 Ry     beta= 0.30
     Davidson diagonalization with overlap
     ethr =  5.31E-05,  avg # of iterations =  7.0

     negative rho (up, down):  1.457E-03 0.000E+00

     add environment contribution to local potential

     total cpu time spent up to now is       91.7 secs

     total energy              =    -343.14002915 Ry
     estimated scf accuracy    <       0.09233671 Ry
     electrostatic embedding   =      -0.08745379 Ry
     cavitation energy         =       0.05776576 Ry
     PV energy                 =      -0.04894969 Ry
     correction to one-el term =       0.51251368 Ry

     iteration #  7     ecut=    35.00 Ry     beta= 0.30
     Davidson diagonalization with overlap
     ethr =  5.31E-05,  avg # of iterations =  1.0

     negative rho (up, down):  2.887E-03 0.000E+00

     add environment contribution to local potential

     total cpu time spent up to now is      108.5 secs

     total energy              =    -343.11378813 Ry
     estimated scf accuracy    <       0.11874191 Ry
     electrostatic embedding   =      -0.08789928 Ry
     cavitation energy         =       0.05757288 Ry
     PV energy                 =      -0.04843596 Ry
     correction to one-el term =       0.73404399 Ry

     iteration #  8     ecut=    35.00 Ry     beta= 0.30
     Davidson diagonalization with overlap
     ethr =  5.31E-05,  avg # of iterations =  1.0

     negative rho (up, down):  1.529E-03 0.000E+00

     add environment contribution to local potential

     total cpu time spent up to now is      124.0 secs

     total energy              =    -343.08042333 Ry
     estimated scf accuracy    <       0.07351230 Ry
     electrostatic embedding   =      -0.09173501 Ry
     cavitation energy         =       0.05825693 Ry
     PV energy                 =      -0.04973711 Ry
     correction to one-el term =       0.45611121 Ry

     iteration #  9     ecut=    35.00 Ry     beta= 0.30
     Davidson diagonalization with overlap
     ethr =  5.31E-05,  avg # of iterations =  3.0

     negative rho (up, down):  1.446E-03 0.000E+00

     add environment contribution to local potential

     total cpu time spent up to now is      141.3 secs

     total energy              =    -343.09373301 Ry
     estimated scf accuracy    <       0.00412206 Ry
     electrostatic embedding   =      -0.09381845 Ry
     cavitation energy         =       0.05920403 Ry
     PV energy                 =      -0.05172196 Ry
     correction to one-el term =      -0.09262095 Ry

     iteration # 10     ecut=    35.00 Ry     beta= 0.30
     Davidson diagonalization with overlap
     ethr =  5.15E-06,  avg # of iterations =  5.0

     negative rho (up, down):  9.563E-04 0.000E+00

     add environment contribution to local potential

     total cpu time spent up to now is      158.7 secs

     total energy              =    -343.09578724 Ry
     estimated scf accuracy    <       0.00101363 Ry
     electrostatic embedding   =      -0.09380636 Ry
     cavitation energy         =       0.05920177 Ry
     PV energy                 =      -0.05171757 Ry
     correction to one-el term =      -0.09150474 Ry

     iteration # 11     ecut=    35.00 Ry     beta= 0.30
     Davidson diagonalization with overlap
     ethr =  1.27E-06,  avg # of iterations =  4.0

     negative rho (up, down):  1.080E-03 0.000E+00

     add environment contribution to local potential

     total cpu time spent up to now is      178.9 secs

     total energy              =    -343.09599233 Ry
     estimated scf accuracy    <       0.00054054 Ry
     electrostatic embedding   =      -0.09388184 Ry
     cavitation energy         =       0.05931013 Ry
     PV energy                 =      -0.05197171 Ry
     correction to one-el term =      -0.16396467 Ry

     iteration # 12     ecut=    35.00 Ry     beta= 0.30
     Davidson diagonalization with overlap
     ethr =  6.76E-07,  avg # of iterations =  3.0

     negative rho (up, down):  1.055E-03 0.000E+00

     add environment contribution to local potential

     total cpu time spent up to now is      196.0 secs

     total energy              =    -343.09743270 Ry
     estimated scf accuracy    <       0.00084602 Ry
     electrostatic embedding   =      -0.09424492 Ry
     cavitation energy         =       0.05943050 Ry
     PV energy                 =      -0.05218015 Ry
     correction to one-el term =      -0.20141265 Ry

     iteration # 13     ecut=    35.00 Ry     beta= 0.30
     Davidson diagonalization with overlap
     ethr =  6.76E-07,  avg # of iterations =  7.0

     negative rho (up, down):  1.103E-03 0.000E+00

     add environment contribution to local potential

     total cpu time spent up to now is      215.3 secs

     total energy              =    -343.10193962 Ry
     estimated scf accuracy    <       0.00847577 Ry
     electrostatic embedding   =      -0.09464957 Ry
     cavitation energy         =       0.05979150 Ry
     PV energy                 =      -0.05286849 Ry
     correction to one-el term =      -0.36488038 Ry

     iteration # 14     ecut=    35.00 Ry     beta= 0.30
     Davidson diagonalization with overlap
     ethr =  6.76E-07,  avg # of iterations =  6.0

     negative rho (up, down):  1.399E-03 0.000E+00

     add environment contribution to local potential

     total cpu time spent up to now is      233.4 secs

     total energy              =    -343.10310961 Ry
     estimated scf accuracy    <       0.01938827 Ry
     electrostatic embedding   =      -0.09362698 Ry
     cavitation energy         =       0.06041816 Ry
     PV energy                 =      -0.05398406 Ry
     correction to one-el term =      -0.56904999 Ry

     iteration # 15     ecut=    35.00 Ry     beta= 0.30
     Davidson diagonalization with overlap
     ethr =  6.76E-07,  avg # of iterations =  4.0

     negative rho (up, down):  1.623E-03 0.000E+00

     add environment contribution to local potential

     total cpu time spent up to now is      249.1 secs

     total energy              =    -343.10100873 Ry
     estimated scf accuracy    <       0.02360927 Ry
     electrostatic embedding   =      -0.09300013 Ry
     cavitation energy         =       0.06057311 Ry
     PV energy                 =      -0.05426490 Ry
     correction to one-el term =      -0.59782504 Ry

     iteration # 16     ecut=    35.00 Ry     beta= 0.30
     Davidson diagonalization with overlap
     ethr =  6.76E-07,  avg # of iterations =  2.0

     negative rho (up, down):  2.081E-03 0.000E+00

     add environment contribution to local potential

     total cpu time spent up to now is      265.3 secs

     total energy              =    -343.10002303 Ry
     estimated scf accuracy    <       0.02000666 Ry
     electrostatic embedding   =      -0.09258988 Ry
     cavitation energy         =       0.06037659 Ry
     PV energy                 =      -0.05393888 Ry
     correction to one-el term =      -0.52278061 Ry

     iteration # 17     ecut=    35.00 Ry     beta= 0.30
     Davidson diagonalization with overlap
     ethr =  6.76E-07,  avg # of iterations =  2.0

     negative rho (up, down):  2.343E-03 0.000E+00

     add environment contribution to local potential

     total cpu time spent up to now is      280.9 secs

     total energy              =    -343.10001220 Ry
     estimated scf accuracy    <       0.01683979 Ry
     electrostatic embedding   =      -0.09252634 Ry
     cavitation energy         =       0.06024604 Ry
     PV energy                 =      -0.05369479 Ry
     correction to one-el term =      -0.45909828 Ry

     iteration # 18     ecut=    35.00 Ry     beta= 0.30
     Davidson diagonalization with overlap
     ethr =  6.76E-07,  avg # of iterations =  1.0

     negative rho (up, down):  7.008E-03 0.000E+00

     add environment contribution to local potential

     total cpu time spent up to now is      299.2 secs

     total energy              =    -343.09352147 Ry
     estimated scf accuracy    <       0.01613533 Ry
     electrostatic embedding   =      -0.09257563 Ry
     cavitation energy         =       0.06021640 Ry
     PV energy                 =      -0.05361603 Ry
     correction to one-el term =      -0.44076883 Ry

     iteration # 19     ecut=    35.00 Ry     beta= 0.30
     Davidson diagonalization with overlap
     ethr =  6.76E-07,  avg # of iterations =  8.0

     negative rho (up, down):  8.216E-03 0.000E+00

     add environment contribution to local potential

     total cpu time spent up to now is      320.7 secs

     total energy              =    -343.09529814 Ry
     estimated scf accuracy    <       0.00133720 Ry
     electrostatic embedding   =      -0.09406394 Ry
     cavitation energy         =       0.05984699 Ry
     PV energy                 =      -0.05277816 Ry
     correction to one-el term =      -0.18850396 Ry

     iteration # 20     ecut=    35.00 Ry     beta= 0.30
     Davidson diagonalization with overlap
     ethr =  6.76E-07,  avg # of iterations =  5.0

     negative rho (up, down):  3.153E-03 0.000E+00

     add environment contribution to local potential

     total cpu time spent up to now is      338.4 secs

     total energy              =    -343.09585979 Ry
     estimated scf accuracy    <       0.00005662 Ry
     electrostatic embedding   =      -0.09721520 Ry
     cavitation energy         =       0.05954094 Ry
     PV energy                 =      -0.05227977 Ry
     correction to one-el term =      -0.08606892 Ry

     iteration # 21     ecut=    35.00 Ry     beta= 0.30
     Davidson diagonalization with overlap
     ethr =  7.08E-08,  avg # of iterations =  6.0

     negative rho (up, down):  1.559E-03 0.000E+00

     add environment contribution to local potential

     total cpu time spent up to now is      357.0 secs

     total energy              =    -343.09595620 Ry
     estimated scf accuracy    <       0.00006479 Ry
     electrostatic embedding   =      -0.09819568 Ry
     cavitation energy         =       0.05941858 Ry
     PV energy                 =      -0.05222550 Ry
     correction to one-el term =      -0.13728822 Ry

     iteration # 22     ecut=    35.00 Ry     beta= 0.30
     Davidson diagonalization with overlap
     ethr =  7.08E-08,  avg # of iterations =  3.0

     negative rho (up, down):  1.449E-03 0.000E+00

     add environment contribution to local potential

     total cpu time spent up to now is      373.1 secs

     total energy              =    -343.09595766 Ry
     estimated scf accuracy    <       0.00000176 Ry
     electrostatic embedding   =      -0.09841775 Ry
     cavitation energy         =       0.05944385 Ry
     PV energy                 =      -0.05232805 Ry
     correction to one-el term =      -0.19682324 Ry

     iteration # 23     ecut=    35.00 Ry     beta= 0.30
     Davidson diagonalization with overlap
     ethr =  2.20E-09,  avg # of iterations =  7.0

     negative rho (up, down):  1.414E-03 0.000E+00

     add environment contribution to local potential

     total cpu time spent up to now is      396.9 secs

     total energy              =    -343.09598090 Ry
     estimated scf accuracy    <       0.00000059 Ry
     electrostatic embedding   =      -0.09872443 Ry
     cavitation energy         =       0.05940311 Ry
     PV energy                 =      -0.05226528 Ry
     correction to one-el term =      -0.19031942 Ry

     iteration # 24     ecut=    35.00 Ry     beta= 0.30
     Davidson diagonalization with overlap
     ethr =  7.32E-10,  avg # of iterations =  6.0

     negative rho (up, down):  1.376E-03 0.000E+00

     add environment contribution to local potential

     total cpu time spent up to now is      415.0 secs

     total energy              =    -343.09598546 Ry
     estimated scf accuracy    <       0.00000014 Ry
     electrostatic embedding   =      -0.09914518 Ry
     cavitation energy         =       0.05939132 Ry
     PV energy                 =      -0.05225393 Ry
     correction to one-el term =      -0.19043089 Ry

     iteration # 25     ecut=    35.00 Ry     beta= 0.30
     Davidson diagonalization with overlap
     ethr =  1.80E-10,  avg # of iterations =  6.0

     negative rho (up, down):  1.351E-03 0.000E+00

     add environment contribution to local potential

     total cpu time spent up to now is      432.3 secs

     total energy              =    -343.09598417 Ry
     estimated scf accuracy    <       0.00000012 Ry
     electrostatic embedding   =      -0.09924595 Ry
     cavitation energy         =       0.05939199 Ry
     PV energy                 =      -0.05225980 Ry
     correction to one-el term =      -0.19266769 Ry

     iteration # 26     ecut=    35.00 Ry     beta= 0.30
     Davidson diagonalization with overlap
     ethr =  1.45E-10,  avg # of iterations =  5.0

     negative rho (up, down):  1.355E-03 0.000E+00

     add environment contribution to local potential

     total cpu time spent up to now is      450.7 secs

     total energy              =    -343.09598278 Ry
     estimated scf accuracy    <       0.00000009 Ry
     electrostatic embedding   =      -0.09936349 Ry
     cavitation energy         =       0.05939176 Ry
     PV energy                 =      -0.05226548 Ry
     correction to one-el term =      -0.19369174 Ry

     iteration # 27     ecut=    35.00 Ry     beta= 0.30
     Davidson diagonalization with overlap
     ethr =  1.08E-10,  avg # of iterations =  4.0

     negative rho (up, down):  1.355E-03 0.000E+00

     the potential shift due to the Gaussian-smeared nuclei is    -0.0923 ev

     total cpu time spent up to now is      457.4 secs

     End of self-consistent calculation

          k = 0.0000 0.0000 0.0000 ( 64589 PWs)   bands (ev):

   -25.4407 -25.2436 -25.1871 -25.1534 -24.9914 -24.9111 -24.8108 -24.7469
   -24.5750 -24.5098 -13.1328 -13.0748 -13.0400 -12.8940 -12.8156 -12.7432
   -12.7058 -12.6485 -12.6306 -12.5660 -10.5464 -10.3852  -9.6975  -9.6061
    -9.4708  -9.3173  -8.8397  -8.7982  -8.7135  -8.1731  -7.4492  -7.3609
    -7.3340  -7.2897  -7.2356  -7.2132  -7.1924  -7.1840  -7.1359  -6.9993

     occupation numbers 
     1.0000   1.0000   1.0000   1.0000   1.0000   1.0000   1.0000   1.0000
     1.0000   1.0000   1.0000   1.0000   1.0000   1.0000   1.0000   1.0000
     1.0000   1.0000   1.0000   1.0000   1.0000   1.0000   1.0000   1.0000
     1.0000   1.0000   1.0000   1.0000   1.0000   1.0000   1.0000   1.0000
     1.0000   1.0000   1.0000   1.0000   1.0000   1.0000   1.0000   1.0000

     highest occupied level (ev):    -6.9993

!    total energy              =    -343.09598293 Ry
     estimated scf accuracy    <       0.00000001 Ry

     The total energy is the sum of the following terms:
     one-electron contribution =   -2464.10000462 Ry
     hartree contribution      =    1246.98254756 Ry
     xc contribution           =     -84.63716632 Ry
     ewald contribution        =     958.94390357 Ry
     electrostatic embedding   =      -0.09940391 Ry
     cavitation energy         =       0.05939092 Ry
     PV energy                 =      -0.05226430 Ry
     correction to one-el term =      -0.19298582 Ry

     convergence has been achieved in  27 iterations
     The global environment contribution to forces
     atom    1 type  2   force =     0.03480850    0.10426977   -0.08606331
     atom    2 type  1   force =     0.02196449    0.03574422   -0.03272126
     atom    3 type  1   force =     0.00492341    0.01337212   -0.01164936
     atom    4 type  2   force =    -0.04155928    0.04448053    0.06707950
     atom    5 type  1   force =    -0.00173820    0.01121668    0.00418794
     atom    6 type  1   force =    -0.00072532    0.00144581    0.00878272
     atom    7 type  2   force =    -0.03338001    0.11466732   -0.06924073
     atom    8 type  1   force =    -0.01860138    0.04607265   -0.02146723
     atom    9 type  1   force =     0.00454553    0.01579709   -0.00436949
     atom   10 type  2   force =    -0.02205472   -0.05729522   -0.09385482
     atom   11 type  1   force =    -0.01039589   -0.00484395   -0.00533639
     atom   12 type  1   force =    -0.01460292   -0.02825469   -0.04089326
     atom   13 type  2   force =     0.05660211   -0.09727520    0.02770747
     atom   14 type  1   force =     0.01215771   -0.00651414   -0.00111874
     atom   15 type  1   force =     0.02791116   -0.04170758    0.01705039
     atom   16 type  2   force =     0.02106227    0.06664693   -0.05405139
     atom   17 type  1   force =    -0.00189197    0.00952517   -0.00188289
     atom   18 type  1   force =     0.00005245    0.00401397   -0.01019670
     atom   19 type  2   force =    -0.04229506   -0.03533690   -0.10458276
     atom   20 type  1   force =    -0.00628073    0.00469997   -0.01637969
     atom   21 type  1   force =    -0.00676006   -0.00463276   -0.01318708
     atom   22 type  2   force =    -0.06965411    0.01797810    0.08017862
     atom   23 type  1   force =    -0.03074697    0.00441841    0.04094950
     atom   24 type  1   force =    -0.01298791   -0.00465454    0.00231803
     atom   25 type  2   force =     0.07599673   -0.00765548    0.02554419
     atom   26 type  1   force =     0.00805891   -0.00404615   -0.00178543
     atom   27 type  1   force =     0.00401554   -0.00096578    0.00595894
     atom   28 type  2   force =    -0.05754616   -0.04152452   -0.10393514
     atom   29 type  1   force =    -0.00380180   -0.01002726   -0.00976242
     atom   30 type  1   force =    -0.00370084    0.00055404   -0.01728562
 

     Forces acting on atoms (cartesian axes, Ry/au):

     atom    1 type  2   force =     0.00167124   -0.02230517    0.01661884
     atom    2 type  1   force =     0.01543768    0.01073474   -0.01348245
     atom    3 type  1   force =    -0.02162820    0.00661902    0.00839223
     atom    4 type  2   force =    -0.00897062   -0.01348470   -0.01417125
     atom    5 type  1   force =     0.00221510    0.02949794   -0.00023940
     atom    6 type  1   force =     0.00589410   -0.01373110    0.02335734
     atom    7 type  2   force =     0.01643875    0.00333640    0.01189141
     atom    8 type  1   force =    -0.00380436    0.02377134   -0.00596022
     atom    9 type  1   force =    -0.00561338   -0.01172931    0.00207980
     atom   10 type  2   force =    -0.00506044    0.00939488    0.02531228
     atom   11 type  1   force =     0.01691318    0.00328921    0.00158761
     atom   12 type  1   force =    -0.01080271   -0.01410869   -0.01545362
     atom   13 type  2   force =    -0.00065227    0.01956721   -0.01230835
     atom   14 type  1   force =    -0.01732646    0.00033879   -0.00017474
     atom   15 type  1   force =     0.01670704   -0.01689153    0.00591750
     atom   16 type  2   force =     0.01309964   -0.02404372    0.00687895
     atom   17 type  1   force =    -0.00952428    0.02124235    0.01372303
     atom   18 type  1   force =    -0.00417406   -0.00069970   -0.02662350
     atom   19 type  2   force =    -0.00731467    0.00176463    0.01590291
     atom   20 type  1   force =    -0.00999800    0.01319523   -0.02465992
     atom   21 type  1   force =     0.01998268   -0.01298052   -0.00505874
     atom   22 type  2   force =     0.00491943   -0.01160952   -0.02584404
     atom   23 type  1   force =    -0.01635020   -0.00227308    0.01680554
     atom   24 type  1   force =     0.01068551    0.00973502   -0.00282622
     atom   25 type  2   force =    -0.01691507    0.01976377   -0.00704999
     atom   26 type  1   force =     0.00987776   -0.02188617   -0.01377213
     atom   27 type  1   force =    -0.00035800   -0.00304065    0.02564085
     atom   28 type  2   force =     0.01001905    0.01306710    0.01903013
     atom   29 type  1   force =    -0.00338505   -0.02945763    0.00048439
     atom   30 type  1   force =    -0.00198340    0.01292385   -0.02599820
     The Martyna-Tuckerman correction term to forces
     atom    1 type  2   force =    -0.00029000   -0.00122418    0.00421802
     atom    2 type  1   force =     0.00000410   -0.00009456    0.00080221
     atom    3 type  1   force =    -0.00001020   -0.00017921    0.00064822
     atom    4 type  2   force =    -0.00092078   -0.00388097    0.00299487
     atom    5 type  1   force =    -0.00013384   -0.00049403    0.00059857
     atom    6 type  1   force =    -0.00016119   -0.00058501    0.00037264
     atom    7 type  2   force =     0.00049377   -0.00043347    0.00260189
     atom    8 type  1   force =     0.00005643    0.00221154    0.00038639
     atom    9 type  1   force =     0.00007350   -0.00026459    0.00035381
     atom   10 type  2   force =    -0.00007008   -0.00456419    0.00176201
     atom   11 type  1   force =    -0.00009497   -0.00072405    0.00038960
     atom   12 type  1   force =    -0.00002345   -0.00095679    0.00032541
     atom   13 type  2   force =    -0.00087311   -0.00196829    0.00128060
     atom   14 type  1   force =    -0.00011987   -0.00039627    0.00014349
     atom   15 type  1   force =    -0.00015139   -0.00056913    0.00006821
     atom   16 type  2   force =     0.00001195   -0.00363158    0.00044353
     atom   17 type  1   force =     0.00011704   -0.00039656    0.00021722
     atom   18 type  1   force =     0.00002872   -0.00077814    0.00008383
     atom   19 type  2   force =     0.00171848   -0.00092333    0.00375804
     atom   20 type  1   force =     0.00027568   -0.00016564    0.00055097
     atom   21 type  1   force =     0.00018362   -0.00009736    0.00063200
     atom   22 type  2   force =     0.00216398   -0.00193820    0.00231267
     atom   23 type  1   force =     0.00043840   -0.00031674    0.00052596
     atom   24 type  1   force =     0.00032130   -0.00023764    0.00048293
     atom   25 type  2   force =     0.00058678   -0.00219406    0.00117982
     atom   26 type  1   force =     0.00006771   -0.00047061    0.00023985
     atom   27 type  1   force =     0.00021857   -0.00038690    0.00020732
     atom   28 type  2   force =     0.00038652   -0.00036074    0.00377815
     atom   29 type  1   force =    -0.00000481   -0.00012437    0.00051881
     atom   30 type  1   force =     0.00002949   -0.00011368    0.00063912
     The non-local contrib.  to forces
     atom    1 type  2   force =    -0.49459201    1.72907501   -0.79225364
     atom    2 type  1   force =    -0.11021834   -0.12492982    0.12893815
     atom    3 type  1   force =     0.16698112   -0.08321432   -0.03613507
     atom    4 type  2   force =     0.76985235    1.06746282    1.52391176
     atom    5 type  1   force =    -0.03500740   -0.19454599   -0.00131961
     atom    6 type  1   force =    -0.07366272    0.07194766   -0.16751198
     atom    7 type  2   force =    -1.73256699    0.26223788   -0.75378390
     atom    8 type  1   force =     0.09559511   -0.17150968    0.07557820
     atom    9 type  1   force =     0.11444938    0.13310622    0.00916460
     atom   10 type  2   force =     0.94543696   -0.54385604   -1.58386247
     atom   11 type  1   force =    -0.17176331   -0.04624809    0.02549021
     atom   12 type  1   force =     0.06172231    0.11615844    0.16410446
     atom   13 type  2   force =    -0.51285094   -1.59303232    0.92147834
     atom   14 type  1   force =     0.17327532    0.03366513   -0.03535837
     atom   15 type  1   force =    -0.11504369    0.15914652   -0.07586024
     atom   16 type  2   force =    -1.16584195    1.40150824   -0.85393990
     atom   17 type  1   force =     0.08957082   -0.14679850   -0.09356570
     atom   18 type  1   force =     0.06350160   -0.00599279    0.18797702
     atom   19 type  2   force =     1.01994198    0.12823732   -1.71888716
     atom   20 type  1   force =     0.04258125   -0.10449655    0.16552428
     atom   21 type  1   force =    -0.17291147    0.07149298    0.02815665
     atom   22 type  2   force =     0.13547738    1.13992225    1.51185960
     atom   23 type  1   force =     0.11811088   -0.01698123   -0.17305092
     atom   24 type  1   force =    -0.12894618   -0.11928521   -0.01038900
     atom   25 type  2   force =     0.62426471   -1.70231105    0.82104133
     atom   26 type  1   force =    -0.06294255    0.15840863    0.09638426
     atom   27 type  1   force =     0.01033519    0.05035664   -0.18989004
     atom   28 type  2   force =    -0.21200627   -1.09798341   -1.74072925
     atom   29 type  1   force =     0.01144210    0.19688935    0.01191406
     atom   30 type  1   force =    -0.00284690   -0.06843332    0.18835803
     The ionic contribution  to forces
     atom    1 type  2   force =     7.24718489    2.67208828   -5.06390522
     atom    2 type  1   force =     2.84779395    3.02416020   -3.19317275
     atom    3 type  1   force =    -1.81016090    2.41437461   -0.59179096
     atom    4 type  2   force =     4.16573928   -5.77127176  -11.21150020
     atom    5 type  1   force =     1.40414552    2.69261341   -1.48415996
     atom    6 type  1   force =     2.36070826   -2.01113442    1.50489805
     atom    7 type  2   force =     0.31175649    9.33595598   -2.17971168
     atom    8 type  1   force =    -2.14377832    4.38359110   -1.85732031
     atom    9 type  1   force =    -2.41386464   -0.66208245   -0.94575693
     atom   10 type  2   force =    -7.07407861   -5.23773185   -4.65852097
     atom   11 type  1   force =     2.06454233   -0.13291543   -1.82435416
     atom   12 type  1   force =    -1.81267453   -2.93186224   -3.97281456
     atom   13 type  2   force =     8.39646926   -4.35624396    1.91861998
     atom   14 type  1   force =    -1.72417941   -1.79128038    1.38211697
     atom   15 type  1   force =     3.05714213   -3.84463424    1.83744118
     atom   16 type  2   force =    -1.25990575  -11.64665541    6.28981776
     atom   17 type  1   force =    -1.97319501    0.93721918    2.52831288
     atom   18 type  1   force =    -1.78215981   -1.59265962   -2.61337056
     atom   19 type  2   force =    -1.45932493    6.84772708   11.49026214
     atom   20 type  1   force =    -0.77388093    3.22690558   -1.53662792
     atom   21 type  1   force =     3.01854297   -0.18155103    1.08729582
     atom   22 type  2   force =    -7.56692714   -2.91924818    5.56078268
     atom   23 type  1   force =    -3.11581941    0.22036089    4.23268552
     atom   24 type  1   force =     1.11704449    1.83796572    1.67151394
     atom   25 type  2   force =   -11.01305025    4.95299130   -5.35365930
     atom   26 type  1   force =    -0.53780767   -2.27092663   -2.44797893
     atom   27 type  1   force =    -2.00660291   -0.55563559    2.78411001
     atom   28 type  2   force =     9.44432452    4.58933200    8.37203596
     atom   29 type  1   force =     1.30632082   -2.94809901    0.81158918
     atom   30 type  1   force =     1.72569531    1.71864688   -2.53683765
     The local contribution  to forces
     atom    1 type  2   force =    -6.78576414   -4.52592027    5.95449856
     atom    2 type  1   force =    -2.74442514   -2.92352532    3.08253241
     atom    3 type  1   force =     1.61632601   -2.33711398    0.64717731
     atom    4 type  2   force =    -4.90241684    4.65034531    9.60321549
     atom    5 type  1   force =    -1.36536743   -2.47866756    1.48031267
     atom    6 type  1   force =    -2.28058225    1.92522080   -1.32332569
     atom    7 type  2   force =     1.46984837   -9.70850752    3.01189639
     atom    8 type  1   force =     2.06261174   -4.23597436    1.79672127
     atom    9 type  1   force =     2.28887145    0.50233754    0.94254621
     atom   10 type  2   force =     6.14540362    5.85349755    6.35968557
     atom   11 type  1   force =    -1.86569288    0.18864666    1.80525940
     atom   12 type  1   force =     1.75446309    2.83143519    3.83368647
     atom   13 type  2   force =    -7.94033465    6.06875388   -2.88156210
     atom   14 type  1   force =     1.52122839    1.76549354   -1.34610446
     atom   15 type  1   force =    -2.95347023    3.71150458   -1.77292857
     atom   16 type  2   force =     2.41748448   10.15871297   -5.37554325
     atom   17 type  1   force =     1.87556304   -0.77768384   -2.41950504
     atom   18 type  1   force =     1.71409164    1.59534336    2.40874337
     atom   19 type  2   force =     0.47230948   -6.93732947   -9.65479924
     atom   20 type  1   force =     0.72699193   -3.11312651    1.36212905
     atom   21 type  1   force =    -2.81938833    0.10243124   -1.10810158
     atom   22 type  2   force =     7.50356004    1.75229446   -7.18116169
     atom   23 type  1   force =     3.01135594   -0.20913052   -4.08445414
     atom   24 type  1   force =    -0.96506319   -1.70343245   -1.66689925
     atom   25 type  2   force =    10.29499149   -3.22042614    4.49870444
     atom   26 type  1   force =     0.60218747    2.09577693    2.33922800
     atom   27 type  1   force =     1.99136360    0.50421699   -2.57489245
     atom   28 type  2   force =    -9.16546507   -3.43576356   -6.51225773
     atom   29 type  1   force =    -1.31765763    2.73253310   -0.81391960
     atom   30 type  1   force =    -1.72147731   -1.63710778    2.33898942
     The core correction contribution to forces
     atom    1 type  2   force =     0.00000000    0.00000000    0.00000000
     atom    2 type  1   force =     0.00000000    0.00000000    0.00000000
     atom    3 type  1   force =     0.00000000    0.00000000    0.00000000
     atom    4 type  2   force =     0.00000000    0.00000000    0.00000000
     atom    5 type  1   force =     0.00000000    0.00000000    0.00000000
     atom    6 type  1   force =     0.00000000    0.00000000    0.00000000
     atom    7 type  2   force =     0.00000000    0.00000000    0.00000000
     atom    8 type  1   force =     0.00000000    0.00000000    0.00000000
     atom    9 type  1   force =     0.00000000    0.00000000    0.00000000
     atom   10 type  2   force =     0.00000000    0.00000000    0.00000000
     atom   11 type  1   force =     0.00000000    0.00000000    0.00000000
     atom   12 type  1   force =     0.00000000    0.00000000    0.00000000
     atom   13 type  2   force =     0.00000000    0.00000000    0.00000000
     atom   14 type  1   force =     0.00000000    0.00000000    0.00000000
     atom   15 type  1   force =     0.00000000    0.00000000    0.00000000
     atom   16 type  2   force =     0.00000000    0.00000000    0.00000000
     atom   17 type  1   force =     0.00000000    0.00000000    0.00000000
     atom   18 type  1   force =     0.00000000    0.00000000    0.00000000
     atom   19 type  2   force =     0.00000000    0.00000000    0.00000000
     atom   20 type  1   force =     0.00000000    0.00000000    0.00000000
     atom   21 type  1   force =     0.00000000    0.00000000    0.00000000
     atom   22 type  2   force =     0.00000000    0.00000000    0.00000000
     atom   23 type  1   force =     0.00000000    0.00000000    0.00000000
     atom   24 type  1   force =     0.00000000    0.00000000    0.00000000
     atom   25 type  2   force =     0.00000000    0.00000000    0.00000000
     atom   26 type  1   force =     0.00000000    0.00000000    0.00000000
     atom   27 type  1   force =     0.00000000    0.00000000    0.00000000
     atom   28 type  2   force =     0.00000000    0.00000000    0.00000000
     atom   29 type  1   force =     0.00000000    0.00000000    0.00000000
     atom   30 type  1   force =     0.00000000    0.00000000    0.00000000
     The Hubbard contrib.    to forces
     atom    1 type  2   force =     0.00000000    0.00000000    0.00000000
     atom    2 type  1   force =     0.00000000    0.00000000    0.00000000
     atom    3 type  1   force =     0.00000000    0.00000000    0.00000000
     atom    4 type  2   force =     0.00000000    0.00000000    0.00000000
     atom    5 type  1   force =     0.00000000    0.00000000    0.00000000
     atom    6 type  1   force =     0.00000000    0.00000000    0.00000000
     atom    7 type  2   force =     0.00000000    0.00000000    0.00000000
     atom    8 type  1   force =     0.00000000    0.00000000    0.00000000
     atom    9 type  1   force =     0.00000000    0.00000000    0.00000000
     atom   10 type  2   force =     0.00000000    0.00000000    0.00000000
     atom   11 type  1   force =     0.00000000    0.00000000    0.00000000
     atom   12 type  1   force =     0.00000000    0.00000000    0.00000000
     atom   13 type  2   force =     0.00000000    0.00000000    0.00000000
     atom   14 type  1   force =     0.00000000    0.00000000    0.00000000
     atom   15 type  1   force =     0.00000000    0.00000000    0.00000000
     atom   16 type  2   force =     0.00000000    0.00000000    0.00000000
     atom   17 type  1   force =     0.00000000    0.00000000    0.00000000
     atom   18 type  1   force =     0.00000000    0.00000000    0.00000000
     atom   19 type  2   force =     0.00000000    0.00000000    0.00000000
     atom   20 type  1   force =     0.00000000    0.00000000    0.00000000
     atom   21 type  1   force =     0.00000000    0.00000000    0.00000000
     atom   22 type  2   force =     0.00000000    0.00000000    0.00000000
     atom   23 type  1   force =     0.00000000    0.00000000    0.00000000
     atom   24 type  1   force =     0.00000000    0.00000000    0.00000000
     atom   25 type  2   force =     0.00000000    0.00000000    0.00000000
     atom   26 type  1   force =     0.00000000    0.00000000    0.00000000
     atom   27 type  1   force =     0.00000000    0.00000000    0.00000000
     atom   28 type  2   force =     0.00000000    0.00000000    0.00000000
     atom   29 type  1   force =     0.00000000    0.00000000    0.00000000
     atom   30 type  1   force =     0.00000000    0.00000000    0.00000000
     The SCF correction term to forces
     atom    1 type  2   force =     0.00000917    0.00003094   -0.00001881
     atom    2 type  1   force =     0.00000380    0.00000474   -0.00000444
     atom    3 type  1   force =    -0.00000246    0.00000453   -0.00000114
     atom    4 type  2   force =     0.00001983    0.00000410   -0.00001591
     atom    5 type  1   force =     0.00000162    0.00000016   -0.00000227
     atom    6 type  1   force =     0.00000250   -0.00000121   -0.00000165
     atom    7 type  2   force =    -0.00002770    0.00004093   -0.00001380
     atom    8 type  1   force =    -0.00000275    0.00000481   -0.00000177
     atom    9 type  1   force =    -0.00000343    0.00000161   -0.00000166
     atom   10 type  2   force =    -0.00001243   -0.00003066   -0.00004028
     atom   11 type  1   force =     0.00000308   -0.00000121   -0.00000430
     atom   12 type  1   force =    -0.00000202   -0.00000387   -0.00000538
     atom   13 type  2   force =     0.00002024   -0.00004219    0.00002412
     atom   14 type  1   force =    -0.00000343   -0.00000438    0.00000314
     atom   15 type  1   force =     0.00000424   -0.00000697    0.00000329
     atom   16 type  2   force =    -0.00002618   -0.00000016    0.00000896
     atom   17 type  1   force =    -0.00000302    0.00000164    0.00000333
     atom   18 type  1   force =    -0.00000348   -0.00000176   -0.00000371
     atom   19 type  2   force =     0.00002057    0.00001464    0.00000865
     atom   20 type  1   force =    -0.00000003    0.00000310    0.00000016
     atom   21 type  1   force =     0.00000113    0.00000113    0.00000219
     atom   22 type  2   force =    -0.00001554    0.00000677    0.00004084
     atom   23 type  1   force =    -0.00000386    0.00000082    0.00000636
     atom   24 type  1   force =     0.00000218    0.00000386    0.00000389
     atom   25 type  2   force =    -0.00001936   -0.00001608   -0.00000372
     atom   26 type  1   force =    -0.00000092   -0.00000363   -0.00000312
     atom   27 type  1   force =    -0.00000281   -0.00000128    0.00000382
     atom   28 type  2   force =     0.00001070   -0.00000795   -0.00000510
     atom   29 type  1   force =     0.00000145   -0.00000471    0.00000112
     atom   30 type  1   force =     0.00000203    0.00000242   -0.00000473

     Total force =     0.135692     Total SCF correction =     0.000123

     Writing output data file /home/simplogic86/Work/QE1/tempdir/H2OCluster_standard.save/
 
     init_run     :      7.57s CPU      8.75s WALL (       1 calls)
     electrons    :    395.12s CPU    449.02s WALL (       1 calls)
     forces       :      3.29s CPU      4.38s WALL (       1 calls)

     Called by init_run:
     wfcinit      :      0.94s CPU      1.08s WALL (       1 calls)
     wfcinit:atom :      0.01s CPU      0.01s WALL (       1 calls)
     wfcinit:wfcr :      0.90s CPU      1.04s WALL (       1 calls)
     potinit      :      1.79s CPU      2.00s WALL (       1 calls)
     hinit0       :      3.12s CPU      3.38s WALL (       1 calls)

     Called by electrons:
     c_bands      :     81.10s CPU     96.21s WALL (      27 calls)
     sum_band     :     26.33s CPU     31.84s WALL (      27 calls)
     v_of_rho     :     19.04s CPU     22.47s WALL (      28 calls)
     v_h          :      2.32s CPU      2.71s WALL (      28 calls)
     v_xc         :     16.72s CPU     19.76s WALL (      28 calls)
     newd         :     11.51s CPU     13.88s WALL (      28 calls)
     mix_rho      :      9.51s CPU     11.71s WALL (      27 calls)

     Called by c_bands:
     init_us_2    :      0.54s CPU      0.57s WALL (      55 calls)
     cegterg      :     79.59s CPU     94.51s WALL (      27 calls)

     Called by sum_band:
     sum_band:wei :      0.00s CPU      0.00s WALL (      27 calls)
     sum_band:loo :     10.34s CPU     11.64s WALL (      27 calls)
     sum_band:buf :      0.00s CPU      0.00s WALL (      27 calls)
     sum_band:ini :      0.31s CPU      0.33s WALL (      27 calls)
     sum_band:cal :      0.79s CPU      0.87s WALL (      27 calls)
     sum_band:bec :      0.01s CPU      0.01s WALL (      27 calls)
     addusdens    :     13.80s CPU     17.12s WALL (      27 calls)
     addusd:skk   :      1.88s CPU      3.04s WALL (      54 calls)
     addusd:dgemm :      3.39s CPU      5.16s WALL (      54 calls)
     addusd:qvan2 :      7.15s CPU      7.44s WALL (      54 calls)

     Called by *egterg:
     cdiaghg      :      0.68s CPU      0.68s WALL (     134 calls)
     cegterg:over :      3.58s CPU      3.97s WALL (     107 calls)
     cegterg:upda :      1.74s CPU      1.84s WALL (     107 calls)
     cegterg:last :      3.72s CPU      3.88s WALL (      86 calls)
     h_psi        :     66.18s CPU     80.10s WALL (     135 calls)
     s_psi        :      2.63s CPU      2.86s WALL (     135 calls)
     g_psi        :      0.18s CPU      0.22s WALL (     107 calls)

     Called by h_psi:
     h_psi:calbec :      2.96s CPU      3.25s WALL (     135 calls)
     vloc_psi     :     60.20s CPU     73.65s WALL (     135 calls)
     add_vuspsi   :      2.64s CPU      2.82s WALL (     135 calls)

     General routines
     calbec       :      3.83s CPU      4.25s WALL (     166 calls)
     fft          :     18.65s CPU     22.11s WALL (     365 calls)
     ffts         :      0.87s CPU      0.91s WALL (      55 calls)
     fftw         :     59.14s CPU     72.96s WALL (    9060 calls)
     interpolate  :      1.84s CPU      1.94s WALL (      28 calls)
 
     Parallel routines
     fft_scatt_xy :      9.75s CPU     10.90s WALL (    9480 calls)
     fft_scatt_yz :     34.74s CPU     47.82s WALL (    9480 calls)
 
     Environ routines
 
     PWSCF        :   6m47.13s CPU   7m44.38s WALL

 
   This run was terminated on:  21:37:19  23Sep2021            

=------------------------------------------------------------------------------=
   JOB DONE.
=------------------------------------------------------------------------------=
