
     Program PWSCF v.6.7MaX starts on 25Sep2021 at 12: 8:49 

     This program is part of the open-source Quantum ESPRESSO suite
     for quantum simulation of materials; please cite
         "P. Giannozzi et al., J. Phys.:Condens. Matter 21 395502 (2009);
         "P. Giannozzi et al., J. Phys.:Condens. Matter 29 465901 (2017);
          URL http://www.quantum-espresso.org", 
     in publications or presentations arising from this work. More details at
     http://www.quantum-espresso.org/quote

     Parallel version (MPI), running on     8 processors

     MPI processes distributed on     1 nodes
     R & G space division:  proc/nbgrp/npool/nimage =       8
     Waiting for input...
     Reading input from standard input
Warning: card &CELL ignored
Warning: card / ignored

     Current dimensions of program PWSCF are:
     Max number of different atomic species (ntypx) = 10
     Max number of k-points (npk) =  40000
     Max angular momentum in pseudopotentials (lmaxx) =  3

     Reading input from environ.in

     ================================================================================

     Reading ENVIRON namelist

     Reading BOUNDARY namelist

     Checking boundary derivatives
     derivatives               = chain          ! SCCS default

     Reading ELECTROSTATIC namelist

     Setting up electrostatic problem
     problem                   = linpb          
     solver                    = cg             

     Checking PBC correction

     ================================================================================
 

     Subspace diagonalization in iterative solution of the eigenvalue problem:
     a serial algorithm will be used

     Message from routine setup:
     using ibrav=0 with symmetry is DISCOURAGED, use correct ibrav instead
 
     Parallelization info
     --------------------
     sticks:   dense  smooth     PW     G-vecs:    dense   smooth      PW
     Min          92      36     12                34688     8766    1652
     Max          93      37     13                34713     8833    1693
     Sum         741     293     97               277595    70411   13373
 


     bravais-lattice index     =            0
     lattice parameter (alat)  =       5.5435  a.u.
     unit-cell volume          =    3161.5726 (a.u.)^3
     number of atoms/cell      =            8
     number of atomic types    =            1
     number of electrons       =        87.50
     number of Kohn-Sham states=           53
     kinetic-energy cutoff     =      30.0000  Ry
     charge density cutoff     =     300.0000  Ry
     scf convergence threshold =      5.0E-09
     mixing beta               =       0.7000
     number of iterations used =            8  plain     mixing
     Exchange-correlation= PBE
                           (   1   4   3   4   0   0   0)
 

     Environ Module
     ==============

     Please cite
         O. Andreussi, I. Dabo and N. Marzari, J. Chem. Phys. 136, 064102 (2012)         
     in publications or presentations arising from this work.

     compensation onset threshold      =               0.1000E+03
     static permittivity               =                    80.00
     epsilon calculation mode          =                     full

     Electrostatic Setup
     -------------------
     electrostatic problem to solve    = linpb                   
     numerical solver adopted          = cg                      
     type of auxiliary density adopted = none                    
     type of core tool for poisson     = fft                     
     type of core tool for correction  = 1d-analytic             



     celldm(1)=   5.543526  celldm(2)=   0.000000  celldm(3)=   0.000000
     celldm(4)=   0.000000  celldm(5)=   0.000000  celldm(6)=   0.000000

     crystal axes: (cart. coord. in units of alat)
               a(1) = (   1.000000   0.000000   0.000000 )  
               a(2) = (   0.000000   1.000000   0.000000 )  
               a(3) = (   0.000000   0.000000  18.558586 )  

     reciprocal axes: (cart. coord. in units 2 pi/alat)
               b(1) = (  1.000000  0.000000  0.000000 )  
               b(2) = (  0.000000  1.000000  0.000000 )  
               b(3) = (  0.000000  0.000000  0.053883 )  


     PseudoPot. # 1 for Ag read from file:
     /home/simplogic86/Work/QE1/pseudo/Ag.pbe-n-rrkjus_psl.1.0.0.UPF
     MD5 check sum: d841cbfac2b0861aec33b46768a516bf
     Pseudo is Ultrasoft + core correction, Zval = 11.0
     Generated using &quot;atomic&quot; code by A. Dal Corso  v.6.2.2
     Using radial grid of 1237 points,  6 beta functions with: 
                l(1) =   0
                l(2) =   0
                l(3) =   1
                l(4) =   1
                l(5) =   2
                l(6) =   2
     Q(r) pseudized with 0 coefficients 


     atomic species   valence    mass     pseudopotential
        Ag            11.00   107.86820     Ag( 1.00)

     16 Sym. Ops., with inversion, found ( 8 have fractional translation)


                                    s                        frac. trans.

      isym =  1     identity                                     

 cryst.   s( 1) = (     1          0          0      )
                  (     0          1          0      )
                  (     0          0          1      )

 cart.    s( 1) = (  1.0000000  0.0000000  0.0000000 )
                  (  0.0000000  1.0000000  0.0000000 )
                  (  0.0000000  0.0000000  1.0000000 )


      isym =  2     180 deg rotation - cart. axis [0,0,1]        

 cryst.   s( 2) = (    -1          0          0      )
                  (     0         -1          0      )
                  (     0          0          1      )

 cart.    s( 2) = ( -1.0000000  0.0000000  0.0000000 )
                  (  0.0000000 -1.0000000  0.0000000 )
                  (  0.0000000  0.0000000  1.0000000 )


      isym =  3     180 deg rotation - cart. axis [0,1,0]        

 cryst.   s( 3) = (    -1          0          0      )    f =(  0.5000000 )
                  (     0          1          0      )       (  0.5000000 )
                  (     0          0         -1      )       ( -0.0000000 )

 cart.    s( 3) = ( -1.0000000  0.0000000  0.0000000 )    f =(  0.5000000 )
                  (  0.0000000  1.0000000  0.0000000 )       (  0.5000000 )
                  (  0.0000000  0.0000000 -1.0000000 )       ( -0.0000000 )


      isym =  4     180 deg rotation - cart. axis [1,0,0]        

 cryst.   s( 4) = (     1          0          0      )    f =(  0.5000000 )
                  (     0         -1          0      )       (  0.5000000 )
                  (     0          0         -1      )       ( -0.0000000 )

 cart.    s( 4) = (  1.0000000  0.0000000  0.0000000 )    f =(  0.5000000 )
                  (  0.0000000 -1.0000000  0.0000000 )       (  0.5000000 )
                  (  0.0000000  0.0000000 -1.0000000 )       ( -0.0000000 )


      isym =  5     180 deg rotation - cart. axis [1,1,0]        

 cryst.   s( 5) = (     0          1          0      )    f =(  0.5000000 )
                  (     1          0          0      )       (  0.5000000 )
                  (     0          0         -1      )       ( -0.0000000 )

 cart.    s( 5) = (  0.0000000  1.0000000  0.0000000 )    f =(  0.5000000 )
                  (  1.0000000  0.0000000  0.0000000 )       (  0.5000000 )
                  (  0.0000000  0.0000000 -1.0000000 )       ( -0.0000000 )


      isym =  6     180 deg rotation - cart. axis [1,-1,0]       

 cryst.   s( 6) = (     0         -1          0      )    f =(  0.5000000 )
                  (    -1          0          0      )       (  0.5000000 )
                  (     0          0         -1      )       ( -0.0000000 )

 cart.    s( 6) = (  0.0000000 -1.0000000  0.0000000 )    f =(  0.5000000 )
                  ( -1.0000000  0.0000000  0.0000000 )       (  0.5000000 )
                  (  0.0000000  0.0000000 -1.0000000 )       ( -0.0000000 )


      isym =  7      90 deg rotation - cart. axis [0,0,-1]       

 cryst.   s( 7) = (     0         -1          0      )
                  (     1          0          0      )
                  (     0          0          1      )

 cart.    s( 7) = (  0.0000000  1.0000000  0.0000000 )
                  ( -1.0000000  0.0000000  0.0000000 )
                  (  0.0000000  0.0000000  1.0000000 )


      isym =  8      90 deg rotation - cart. axis [0,0,1]        

 cryst.   s( 8) = (     0          1          0      )
                  (    -1          0          0      )
                  (     0          0          1      )

 cart.    s( 8) = (  0.0000000 -1.0000000  0.0000000 )
                  (  1.0000000  0.0000000  0.0000000 )
                  (  0.0000000  0.0000000  1.0000000 )


      isym =  9     inversion                                    

 cryst.   s( 9) = (    -1          0          0      )    f =(  0.5000000 )
                  (     0         -1          0      )       (  0.5000000 )
                  (     0          0         -1      )       ( -0.0000000 )

 cart.    s( 9) = ( -1.0000000  0.0000000  0.0000000 )    f =(  0.5000000 )
                  (  0.0000000 -1.0000000  0.0000000 )       (  0.5000000 )
                  (  0.0000000  0.0000000 -1.0000000 )       ( -0.0000000 )


      isym = 10     inv. 180 deg rotation - cart. axis [0,0,1]   

 cryst.   s(10) = (     1          0          0      )    f =(  0.5000000 )
                  (     0          1          0      )       (  0.5000000 )
                  (     0          0         -1      )       ( -0.0000000 )

 cart.    s(10) = (  1.0000000  0.0000000  0.0000000 )    f =(  0.5000000 )
                  (  0.0000000  1.0000000  0.0000000 )       (  0.5000000 )
                  (  0.0000000  0.0000000 -1.0000000 )       ( -0.0000000 )


      isym = 11     inv. 180 deg rotation - cart. axis [0,1,0]   

 cryst.   s(11) = (     1          0          0      )
                  (     0         -1          0      )
                  (     0          0          1      )

 cart.    s(11) = (  1.0000000  0.0000000  0.0000000 )
                  (  0.0000000 -1.0000000  0.0000000 )
                  (  0.0000000  0.0000000  1.0000000 )


      isym = 12     inv. 180 deg rotation - cart. axis [1,0,0]   

 cryst.   s(12) = (    -1          0          0      )
                  (     0          1          0      )
                  (     0          0          1      )

 cart.    s(12) = ( -1.0000000  0.0000000  0.0000000 )
                  (  0.0000000  1.0000000  0.0000000 )
                  (  0.0000000  0.0000000  1.0000000 )


      isym = 13     inv. 180 deg rotation - cart. axis [1,1,0]   

 cryst.   s(13) = (     0         -1          0      )
                  (    -1          0          0      )
                  (     0          0          1      )

 cart.    s(13) = (  0.0000000 -1.0000000  0.0000000 )
                  ( -1.0000000  0.0000000  0.0000000 )
                  (  0.0000000  0.0000000  1.0000000 )


      isym = 14     inv. 180 deg rotation - cart. axis [1,-1,0]  

 cryst.   s(14) = (     0          1          0      )
                  (     1          0          0      )
                  (     0          0          1      )

 cart.    s(14) = (  0.0000000  1.0000000  0.0000000 )
                  (  1.0000000  0.0000000  0.0000000 )
                  (  0.0000000  0.0000000  1.0000000 )


      isym = 15     inv.  90 deg rotation - cart. axis [0,0,-1]  

 cryst.   s(15) = (     0          1          0      )    f =(  0.5000000 )
                  (    -1          0          0      )       (  0.5000000 )
                  (     0          0         -1      )       ( -0.0000000 )

 cart.    s(15) = (  0.0000000 -1.0000000  0.0000000 )    f =(  0.5000000 )
                  (  1.0000000  0.0000000  0.0000000 )       (  0.5000000 )
                  (  0.0000000  0.0000000 -1.0000000 )       ( -0.0000000 )


      isym = 16     inv.  90 deg rotation - cart. axis [0,0,1]   

 cryst.   s(16) = (     0         -1          0      )    f =(  0.5000000 )
                  (     1          0          0      )       (  0.5000000 )
                  (     0          0         -1      )       ( -0.0000000 )

 cart.    s(16) = (  0.0000000  1.0000000  0.0000000 )    f =(  0.5000000 )
                  ( -1.0000000  0.0000000  0.0000000 )       (  0.5000000 )
                  (  0.0000000  0.0000000 -1.0000000 )       ( -0.0000000 )


   Cartesian axes

     site n.     atom                  positions (alat units)
         1           Ag  tau(   1) = (   0.5000000   0.5000000   6.8177767  )
         2           Ag  tau(   2) = (   0.0000000   0.0000000   7.5110323  )
         3           Ag  tau(   3) = (   0.5000000   0.5000000   8.2185960  )
         4           Ag  tau(   4) = (   0.0000000   0.0000000   8.9261320  )
         5           Ag  tau(   5) = (   0.5000000   0.5000000   9.6324544  )
         6           Ag  tau(   6) = (   0.0000000   0.0000000  10.3399904  )
         7           Ag  tau(   7) = (   0.5000000   0.5000000  11.0475540  )
         8           Ag  tau(   8) = (   0.0000000   0.0000000  11.7408097  )

   Crystallographic axes

     site n.     atom                  positions (cryst. coord.)
         1           Ag  tau(   1) = (  0.5000000  0.5000000  0.3673651  )
         2           Ag  tau(   2) = (  0.0000000  0.0000000  0.4047201  )
         3           Ag  tau(   3) = (  0.5000000  0.5000000  0.4428460  )
         4           Ag  tau(   4) = (  0.0000000  0.0000000  0.4809705  )
         5           Ag  tau(   5) = (  0.5000000  0.5000000  0.5190295  )
         6           Ag  tau(   6) = (  0.0000000  0.0000000  0.5571540  )
         7           Ag  tau(   7) = (  0.5000000  0.5000000  0.5952799  )
         8           Ag  tau(   8) = (  0.0000000  0.0000000  0.6326349  )

     number of k points=     3  Marzari-Vanderbilt smearing, width (Ry)=  0.0200
                       cart. coord. in units 2pi/alat
        k(    1) = (   0.0000000   0.0000000   0.0000000), wk =   0.5000000
        k(    2) = (   0.0000000  -0.5000000   0.0000000), wk =   1.0000000
        k(    3) = (  -0.5000000  -0.5000000   0.0000000), wk =   0.5000000

                       cryst. coord.
        k(    1) = (   0.0000000   0.0000000   0.0000000), wk =   0.5000000
        k(    2) = (   0.0000000  -0.5000000   0.0000000), wk =   1.0000000
        k(    3) = (  -0.5000000  -0.5000000   0.0000000), wk =   0.5000000

     Dense  grid:   277595 G-vectors     FFT dimensions: (  32,  32, 576)

     Smooth grid:    70411 G-vectors     FFT dimensions: (  20,  20, 360)

     Dynamical RAM for                 wfc:       0.89 MB

     Dynamical RAM for     wfc (w. buffer):       3.55 MB

     Dynamical RAM for           str. fact:       0.53 MB

     Dynamical RAM for           local pot:       0.00 MB

     Dynamical RAM for          nlocal pot:       2.41 MB

     Dynamical RAM for                qrad:       1.39 MB

     Dynamical RAM for          rho,v,vnew:       3.28 MB

     Dynamical RAM for               rhoin:       1.09 MB

     Dynamical RAM for            rho*nmix:       8.47 MB

     Dynamical RAM for           G-vectors:       2.05 MB

     Dynamical RAM for          h,s,v(r/c):       0.51 MB

     Dynamical RAM for          <psi|beta>:       0.12 MB

     Dynamical RAM for                 psi:       1.77 MB

     Dynamical RAM for                hpsi:       1.77 MB

     Dynamical RAM for                spsi:       1.77 MB

     Dynamical RAM for      wfcinit/wfcrot:       2.53 MB

     Dynamical RAM for           addusdens:     102.76 MB

     Dynamical RAM for          addusforce:     110.47 MB

     Estimated static dynamical RAM per process >      26.64 MB

     Estimated max dynamical RAM per process >     137.11 MB

     Estimated total dynamical RAM >       1.07 GB
Warning: wrong integral of erfc function


     Initial potential from superposition of free atoms

     starting charge   87.99681, renormalised to   87.50000

     negative rho (up, down):  3.125E-04 0.000E+00
     Starting wfcs are   72 randomized atomic wfcs

     total cpu time spent up to now is        2.8 secs

     Self-consistent Calculation

     iteration #  1     ecut=    30.00 Ry     beta= 0.70
     Davidson diagonalization with overlap
     ethr =  1.00E-02,  avg # of iterations =  5.7

     total cpu time spent up to now is        5.5 secs

     total energy              =    -543.73205955 Ry
     estimated scf accuracy    <     146.27981688 Ry
     electrostatic embedding   =       0.02186097 Ry
     electrolyte free energy   =       0.00062421 Ry
     correction to one-el term =       0.00000000 Ry

     iteration #  2     ecut=    30.00 Ry     beta= 0.70
     Davidson diagonalization with overlap
     ethr =  1.00E-02,  avg # of iterations = 31.0

     negative rho (up, down):  5.625E-06 0.000E+00

     total cpu time spent up to now is       26.9 secs

     total energy              =    -548.98998050 Ry
     estimated scf accuracy    <    9595.11030234 Ry
     electrostatic embedding   =       0.02186097 Ry
     electrolyte free energy   =       0.00062421 Ry
     correction to one-el term =       0.00000000 Ry

     iteration #  3     ecut=    30.00 Ry     beta= 0.70
     Davidson diagonalization with overlap
     ethr =  1.00E-02,  avg # of iterations = 18.3

     negative rho (up, down):  1.298E-04 0.000E+00

     total cpu time spent up to now is       35.7 secs

     total energy              =    -627.59674598 Ry
     estimated scf accuracy    <    3027.89295462 Ry
     electrostatic embedding   =       0.02186097 Ry
     electrolyte free energy   =       0.00062421 Ry
     correction to one-el term =       0.00000000 Ry

     iteration #  4     ecut=    30.00 Ry     beta= 0.70
     Davidson diagonalization with overlap
     c_bands:  1 eigenvalues not converged
     ethr =  1.00E-02,  avg # of iterations = 18.0

     negative rho (up, down):  3.525E-05 0.000E+00

     total cpu time spent up to now is       41.6 secs

     total energy              =    -666.36094165 Ry
     estimated scf accuracy    <     244.09044147 Ry
     electrostatic embedding   =       0.02186097 Ry
     electrolyte free energy   =       0.00062421 Ry
     correction to one-el term =       0.00000000 Ry

     iteration #  5     ecut=    30.00 Ry     beta= 0.70
     Davidson diagonalization with overlap
     ethr =  1.00E-02,  avg # of iterations =  8.7

     negative rho (up, down):  6.440E-06 0.000E+00

     add environment contribution to local potential

     total cpu time spent up to now is       53.3 secs

     total energy              =    -667.94279918 Ry
     estimated scf accuracy    <      85.83471228 Ry
     electrostatic embedding   =       0.02186097 Ry
     electrolyte free energy   =       0.00062421 Ry
     correction to one-el term =       0.00000000 Ry

     iteration #  6     ecut=    30.00 Ry     beta= 0.70
     Davidson diagonalization with overlap
     ethr =  1.00E-02,  avg # of iterations =  8.7

     negative rho (up, down):  6.893E-08 0.000E+00

     add environment contribution to local potential

     total cpu time spent up to now is       62.6 secs

     total energy              =    -672.40582556 Ry
     estimated scf accuracy    <       3.07589550 Ry
     electrostatic embedding   =      -0.17536813 Ry
     electrolyte free energy   =      -0.00129534 Ry
     correction to one-el term =     -25.33635421 Ry

     iteration #  7     ecut=    30.00 Ry     beta= 0.70
     Davidson diagonalization with overlap
     ethr =  3.52E-03,  avg # of iterations =  1.7

     negative rho (up, down):  1.593E-08 0.000E+00

     add environment contribution to local potential

     total cpu time spent up to now is       67.4 secs

     total energy              =    -672.26443973 Ry
     estimated scf accuracy    <       4.65860136 Ry
     electrostatic embedding   =      -0.22594397 Ry
     electrolyte free energy   =      -0.00130727 Ry
     correction to one-el term =     -25.35014496 Ry

     iteration #  8     ecut=    30.00 Ry     beta= 0.70
     Davidson diagonalization with overlap
     ethr =  3.52E-03,  avg # of iterations =  1.0

     add environment contribution to local potential

     total cpu time spent up to now is       76.8 secs

     total energy              =    -672.03361470 Ry
     estimated scf accuracy    <       3.66786649 Ry
     electrostatic embedding   =      -0.26375972 Ry
     electrolyte free energy   =      -0.00130754 Ry
     correction to one-el term =     -32.84052565 Ry

     iteration #  9     ecut=    30.00 Ry     beta= 0.70
     Davidson diagonalization with overlap
     ethr =  3.52E-03,  avg # of iterations =  1.7

     add environment contribution to local potential

     total cpu time spent up to now is       85.4 secs

     total energy              =    -671.86450874 Ry
     estimated scf accuracy    <       5.42113403 Ry
     electrostatic embedding   =      -0.32486822 Ry
     electrolyte free energy   =      -0.00130657 Ry
     correction to one-el term =     -47.49117366 Ry

     iteration # 10     ecut=    30.00 Ry     beta= 0.70
     Davidson diagonalization with overlap
     ethr =  3.52E-03,  avg # of iterations =  1.3

     negative rho (up, down):  1.690E-08 0.000E+00

     add environment contribution to local potential

     total cpu time spent up to now is       93.7 secs

     total energy              =    -671.65602769 Ry
     estimated scf accuracy    <       2.03485810 Ry
     electrostatic embedding   =      -0.32030260 Ry
     electrolyte free energy   =      -0.00129284 Ry
     correction to one-el term =     -54.69441903 Ry

     iteration # 11     ecut=    30.00 Ry     beta= 0.70
     Davidson diagonalization with overlap
     ethr =  2.33E-03,  avg # of iterations =  5.3

     negative rho (up, down):  2.845E-05 0.000E+00

     add environment contribution to local potential

     total cpu time spent up to now is       99.8 secs

     total energy              =    -673.51242587 Ry
     estimated scf accuracy    <       5.46496824 Ry
     electrostatic embedding   =      -0.31346681 Ry
     electrolyte free energy   =      -0.00127303 Ry
     correction to one-el term =     -65.42380372 Ry

     iteration # 12     ecut=    30.00 Ry     beta= 0.70
     Davidson diagonalization with overlap
     ethr =  2.33E-03,  avg # of iterations =  7.3

     negative rho (up, down):  4.790E-05 0.000E+00

     add environment contribution to local potential

     total cpu time spent up to now is      110.3 secs

     total energy              =    -673.43282175 Ry
     estimated scf accuracy    <       8.92850101 Ry
     electrostatic embedding   =      -0.13933409 Ry
     electrolyte free energy   =      -0.00125585 Ry
     correction to one-el term =     -47.38368453 Ry

     iteration # 13     ecut=    30.00 Ry     beta= 0.70
     Davidson diagonalization with overlap
     ethr =  2.33E-03,  avg # of iterations =  1.3

     negative rho (up, down):  6.638E-05 0.000E+00

     add environment contribution to local potential

     total cpu time spent up to now is      120.8 secs

     total energy              =    -673.42804395 Ry
     estimated scf accuracy    <       8.72601049 Ry
     electrostatic embedding   =      -0.09993156 Ry
     electrolyte free energy   =      -0.00123098 Ry
     correction to one-el term =     -39.32476924 Ry

     iteration # 14     ecut=    30.00 Ry     beta= 0.70
     Davidson diagonalization with overlap
     ethr =  2.33E-03,  avg # of iterations =  1.0

     negative rho (up, down):  8.622E-03 0.000E+00

     add environment contribution to local potential

     total cpu time spent up to now is      130.0 secs

     total energy              =    -673.40095387 Ry
     estimated scf accuracy    <       8.40129563 Ry
     electrostatic embedding   =      -0.08766119 Ry
     electrolyte free energy   =      -0.00129481 Ry
     correction to one-el term =     -36.97790551 Ry

     iteration # 15     ecut=    30.00 Ry     beta= 0.70
     Davidson diagonalization with overlap
     ethr =  2.33E-03,  avg # of iterations =  2.3

     negative rho (up, down):  5.946E-04 0.000E+00

     add environment contribution to local potential

     total cpu time spent up to now is      138.8 secs

     total energy              =    -673.42043129 Ry
     estimated scf accuracy    <       8.99610893 Ry
     electrostatic embedding   =      -0.05895304 Ry
     electrolyte free energy   =      -0.00117468 Ry
     correction to one-el term =     -31.74289640 Ry

     iteration # 16     ecut=    30.00 Ry     beta= 0.70
     Davidson diagonalization with overlap
     ethr =  2.33E-03,  avg # of iterations =  1.3

     negative rho (up, down):  1.307E-03 0.000E+00

     add environment contribution to local potential

     total cpu time spent up to now is      147.3 secs

     total energy              =    -673.43329204 Ry
     estimated scf accuracy    <       8.70489257 Ry
     electrostatic embedding   =      -0.07550380 Ry
     electrolyte free energy   =      -0.00122613 Ry
     correction to one-el term =     -34.66623414 Ry

     iteration # 17     ecut=    30.00 Ry     beta= 0.70
     Davidson diagonalization with overlap
     ethr =  2.33E-03,  avg # of iterations =  1.0

     negative rho (up, down):  4.693E-05 0.000E+00

     add environment contribution to local potential

     total cpu time spent up to now is      156.7 secs

     total energy              =    -673.35937733 Ry
     estimated scf accuracy    <       8.75256938 Ry
     electrostatic embedding   =      -0.07498648 Ry
     electrolyte free energy   =      -0.00120489 Ry
     correction to one-el term =     -34.67561143 Ry

     iteration # 18     ecut=    30.00 Ry     beta= 0.70
     Davidson diagonalization with overlap
     ethr =  2.33E-03,  avg # of iterations =  1.0

     negative rho (up, down):  4.706E-05 0.000E+00

     add environment contribution to local potential

     total cpu time spent up to now is      162.3 secs

     total energy              =    -673.30859752 Ry
     estimated scf accuracy    <       7.76422226 Ry
     electrostatic embedding   =      -0.08488114 Ry
     electrolyte free energy   =      -0.00125698 Ry
     correction to one-el term =     -35.99785262 Ry

     iteration # 19     ecut=    30.00 Ry     beta= 0.70
     Davidson diagonalization with overlap
     ethr =  2.33E-03,  avg # of iterations =  1.0

     negative rho (up, down):  3.570E-05 0.000E+00

     add environment contribution to local potential

     total cpu time spent up to now is      172.9 secs

     total energy              =    -671.85460450 Ry
     estimated scf accuracy    <       7.11023956 Ry
     electrostatic embedding   =      -0.08764229 Ry
     electrolyte free energy   =      -0.00120200 Ry
     correction to one-el term =     -36.57709479 Ry

     iteration # 20     ecut=    30.00 Ry     beta= 0.70
     Davidson diagonalization with overlap
     ethr =  2.33E-03,  avg # of iterations =  6.0

     negative rho (up, down):  1.529E-03 0.000E+00

     add environment contribution to local potential

     total cpu time spent up to now is      184.4 secs

     total energy              =    -672.08761219 Ry
     estimated scf accuracy    <      14.76427528 Ry
     electrostatic embedding   =      -0.16135079 Ry
     electrolyte free energy   =      -0.00126665 Ry
     correction to one-el term =     -51.27019958 Ry

     iteration # 21     ecut=    30.00 Ry     beta= 0.70
     Davidson diagonalization with overlap
     ethr =  2.33E-03,  avg # of iterations =  2.0

     negative rho (up, down):  2.841E-08 0.000E+00

     add environment contribution to local potential

     total cpu time spent up to now is      195.1 secs

     total energy              =    -672.62958253 Ry
     estimated scf accuracy    <       2.15752420 Ry
     electrostatic embedding   =      -0.07202833 Ry
     electrolyte free energy   =      -0.00123793 Ry
     correction to one-el term =     -33.62592682 Ry

     iteration # 22     ecut=    30.00 Ry     beta= 0.70
     Davidson diagonalization with overlap
     ethr =  2.33E-03,  avg # of iterations =  1.0

     negative rho (up, down):  6.557E-08 0.000E+00

     add environment contribution to local potential

     total cpu time spent up to now is      205.2 secs

     total energy              =    -672.69458940 Ry
     estimated scf accuracy    <       1.35909977 Ry
     electrostatic embedding   =      -0.09751087 Ry
     electrolyte free energy   =      -0.00123121 Ry
     correction to one-el term =     -38.74008545 Ry

     iteration # 23     ecut=    30.00 Ry     beta= 0.70
     Davidson diagonalization with overlap
     ethr =  1.55E-03,  avg # of iterations =  1.0

     negative rho (up, down):  1.322E-07 0.000E+00

     add environment contribution to local potential

     total cpu time spent up to now is      214.7 secs

     total energy              =    -672.70798472 Ry
     estimated scf accuracy    <       0.05426526 Ry
     electrostatic embedding   =      -0.10184435 Ry
     electrolyte free energy   =      -0.00123570 Ry
     correction to one-el term =     -39.79022142 Ry

     iteration # 24     ecut=    30.00 Ry     beta= 0.70
     Davidson diagonalization with overlap
     ethr =  6.20E-05,  avg # of iterations = 13.3

     negative rho (up, down):  4.061E-08 0.000E+00

     add environment contribution to local potential

     total cpu time spent up to now is      222.1 secs

     total energy              =    -672.71548732 Ry
     estimated scf accuracy    <       0.21666730 Ry
     electrostatic embedding   =      -0.09971338 Ry
     electrolyte free energy   =      -0.00119222 Ry
     correction to one-el term =     -39.41691203 Ry

     iteration # 25     ecut=    30.00 Ry     beta= 0.70
     Davidson diagonalization with overlap
     ethr =  6.20E-05,  avg # of iterations =  1.7

     add environment contribution to local potential

     total cpu time spent up to now is      227.6 secs

     total energy              =    -672.68752647 Ry
     estimated scf accuracy    <       0.72868204 Ry
     electrostatic embedding   =      -0.10025627 Ry
     electrolyte free energy   =      -0.00125109 Ry
     correction to one-el term =     -39.62831265 Ry

     iteration # 26     ecut=    30.00 Ry     beta= 0.70
     Davidson diagonalization with overlap
     ethr =  6.20E-05,  avg # of iterations =  2.0

     add environment contribution to local potential

     total cpu time spent up to now is      237.6 secs

     total energy              =    -672.69944520 Ry
     estimated scf accuracy    <       0.35978597 Ry
     electrostatic embedding   =      -0.10685265 Ry
     electrolyte free energy   =      -0.00131646 Ry
     correction to one-el term =     -40.99706448 Ry

     iteration # 27     ecut=    30.00 Ry     beta= 0.70
     Davidson diagonalization with overlap
     ethr =  6.20E-05,  avg # of iterations =  1.0

     add environment contribution to local potential

     total cpu time spent up to now is      247.7 secs

     total energy              =    -672.70620434 Ry
     estimated scf accuracy    <       0.11448684 Ry
     electrostatic embedding   =      -0.10406838 Ry
     electrolyte free energy   =      -0.00129667 Ry
     correction to one-el term =     -40.39153426 Ry

     iteration # 28     ecut=    30.00 Ry     beta= 0.70
     Davidson diagonalization with overlap
     ethr =  6.20E-05,  avg # of iterations =  1.0

     add environment contribution to local potential

     total cpu time spent up to now is      254.0 secs

     total energy              =    -672.70815350 Ry
     estimated scf accuracy    <       0.00640989 Ry
     electrostatic embedding   =      -0.10503334 Ry
     electrolyte free energy   =      -0.00129691 Ry
     correction to one-el term =     -40.59400828 Ry

     iteration # 29     ecut=    30.00 Ry     beta= 0.70
     Davidson diagonalization with overlap
     c_bands:  1 eigenvalues not converged
     ethr =  7.33E-06,  avg # of iterations =  8.0

     add environment contribution to local potential

     total cpu time spent up to now is      264.7 secs

     total energy              =    -672.70808942 Ry
     estimated scf accuracy    <       0.00456579 Ry
     electrostatic embedding   =      -0.10482571 Ry
     electrolyte free energy   =      -0.00130236 Ry
     correction to one-el term =     -40.53210924 Ry

     iteration # 30     ecut=    30.00 Ry     beta= 0.70
     Davidson diagonalization with overlap
     ethr =  5.22E-06,  avg # of iterations =  2.3

     add environment contribution to local potential

     total cpu time spent up to now is      275.0 secs

     total energy              =    -672.70806927 Ry
     estimated scf accuracy    <       0.00079073 Ry
     electrostatic embedding   =      -0.10476565 Ry
     electrolyte free energy   =      -0.00130521 Ry
     correction to one-el term =     -40.51675351 Ry

     iteration # 31     ecut=    30.00 Ry     beta= 0.70
     Davidson diagonalization with overlap
     ethr =  9.04E-07,  avg # of iterations =  4.7

     add environment contribution to local potential

     total cpu time spent up to now is      282.7 secs

     total energy              =    -672.70807656 Ry
     estimated scf accuracy    <       0.00004993 Ry
     electrostatic embedding   =      -0.10480550 Ry
     electrolyte free energy   =      -0.00131123 Ry
     correction to one-el term =     -40.51808897 Ry

     iteration # 32     ecut=    30.00 Ry     beta= 0.70
     Davidson diagonalization with overlap
     ethr =  5.71E-08,  avg # of iterations =  3.3

     add environment contribution to local potential

     total cpu time spent up to now is      288.5 secs

     total energy              =    -672.70807169 Ry
     estimated scf accuracy    <       0.00000324 Ry
     electrostatic embedding   =      -0.10478829 Ry
     electrolyte free energy   =      -0.00131402 Ry
     correction to one-el term =     -40.51425067 Ry

     iteration # 33     ecut=    30.00 Ry     beta= 0.70
     Davidson diagonalization with overlap
     ethr =  3.70E-09,  avg # of iterations =  5.7

     add environment contribution to local potential

     total cpu time spent up to now is      301.3 secs

     total energy              =    -672.70807020 Ry
     estimated scf accuracy    <       0.00000007 Ry
     electrostatic embedding   =      -0.10480473 Ry
     electrolyte free energy   =      -0.00131479 Ry
     correction to one-el term =     -40.51668262 Ry

     iteration # 34     ecut=    30.00 Ry     beta= 0.70
     Davidson diagonalization with overlap
     ethr =  8.03E-11,  avg # of iterations =  5.7

     add environment contribution to local potential

     total cpu time spent up to now is      312.2 secs

     total energy              =    -672.70806896 Ry
     estimated scf accuracy    <          9.1E-09 Ry
     electrostatic embedding   =      -0.10480196 Ry
     electrolyte free energy   =      -0.00131526 Ry
     correction to one-el term =     -40.51568556 Ry

     iteration # 35     ecut=    30.00 Ry     beta= 0.70
     Davidson diagonalization with overlap
     ethr =  1.04E-11,  avg # of iterations =  3.0

     add environment contribution to local potential

     total cpu time spent up to now is      316.2 secs

     total energy              =    -672.70806815 Ry
     estimated scf accuracy    <          9.5E-09 Ry
     electrostatic embedding   =      -0.10480472 Ry
     electrolyte free energy   =      -0.00131556 Ry
     correction to one-el term =     -40.51598314 Ry

     iteration # 36     ecut=    30.00 Ry     beta= 0.70
     Davidson diagonalization with overlap
     ethr =  1.04E-11,  avg # of iterations =  2.0

     the potential shift due to the Gaussian-smeared nuclei is    -0.5949 ev

     total cpu time spent up to now is      323.5 secs

     End of self-consistent calculation

          k = 0.0000 0.0000 0.0000 (  8687 PWs)   bands (ev):

   -11.8406 -11.5273 -11.0446 -10.6071 -10.5236 -10.5210 -10.5058 -10.4274
   -10.3083 -10.2633 -10.1574  -9.9984  -9.7984  -9.5718  -9.2824  -9.0851
    -9.0598  -9.0598  -9.0176  -9.0176  -8.7780  -8.7780  -8.4884  -8.4036
    -8.3963  -8.3963  -8.2628  -8.2610  -8.2013  -8.1188  -8.0817  -8.0817
    -7.9992  -7.8758  -7.7903  -7.7903  -7.7893  -7.6221  -7.5162  -7.4310
    -7.4310  -7.4268  -7.3433  -7.1988  -7.1988  -6.2051  -4.6218  -2.8808
    -2.3675   0.0528   0.0647   0.3535   0.4762

     occupation numbers 
     1.0000   1.0000   1.0000   1.0000   1.0000   1.0000   1.0000   1.0000
     1.0000   1.0000   1.0000   1.0000   1.0000   1.0000   1.0000   1.0000
     1.0000   1.0000   1.0000   1.0000   1.0000   1.0000   1.0000   1.0000
     1.0000   1.0000   1.0000   1.0000   1.0000   1.0000   1.0000   1.0000
     1.0000   1.0000   1.0000   1.0000   1.0000   1.0000   1.0000   1.0000
     1.0000   1.0000   1.0000   1.0000   1.0000   1.0000   0.0578   0.0000
     0.0000   0.0000   0.0000   0.0000   0.0000

          k = 0.0000-0.5000 0.0000 (  8814 PWs)   bands (ev):

   -10.5358 -10.5358 -10.4402 -10.4401 -10.1768 -10.1768  -9.7818  -9.7818
    -9.3793  -9.3793  -9.3367  -9.3366  -9.1525  -9.1525  -9.1502  -9.1502
    -9.0449  -9.0449  -9.0358  -9.0358  -8.8291  -8.8291  -8.7883  -8.7883
    -8.5370  -8.5370  -8.3830  -8.3830  -8.0691  -8.0691  -7.8975  -7.8975
    -7.8829  -7.8828  -7.5746  -7.5746  -7.4579  -7.4579  -7.3534  -7.3534
    -5.0462  -5.0462  -4.9782  -4.9782  -4.8786  -4.8786  -4.5675  -4.5675
    -1.5643  -1.5642  -0.3467  -0.3466   1.0399

     occupation numbers 
     1.0000   1.0000   1.0000   1.0000   1.0000   1.0000   1.0000   1.0000
     1.0000   1.0000   1.0000   1.0000   1.0000   1.0000   1.0000   1.0000
     1.0000   1.0000   1.0000   1.0000   1.0000   1.0000   1.0000   1.0000
     1.0000   1.0000   1.0000   1.0000   1.0000   1.0000   1.0000   1.0000
     1.0000   1.0000   1.0000   1.0000   1.0000   1.0000   1.0000   1.0000
     0.9278   0.9278   0.7743   0.7742   0.5038   0.5038   0.0297   0.0297
     0.0000   0.0000   0.0000   0.0000   0.0000

          k =-0.5000-0.5000 0.0000 (  8868 PWs)   bands (ev):

   -10.5881 -10.5881 -10.4675 -10.4675 -10.4126 -10.4126 -10.3201 -10.3201
   -10.2184 -10.2184 -10.0400 -10.0400  -9.9275  -9.9275  -9.5250  -9.5250
    -8.9755  -8.9755  -8.4415  -8.4415  -8.0739  -8.0739  -7.9745  -7.9745
    -7.8371  -7.8371  -7.6486  -7.6486  -7.5567  -7.5567  -7.3921  -7.3920
    -7.3335  -7.3335  -7.3092  -7.3091  -7.1333  -7.1333  -7.0358  -7.0357
    -2.6046  -2.6046  -1.9389  -1.9389  -0.9363  -0.9363   0.3600   0.3600
     1.7845   1.7845   1.8902   1.8904   1.9682

     occupation numbers 
     1.0000   1.0000   1.0000   1.0000   1.0000   1.0000   1.0000   1.0000
     1.0000   1.0000   1.0000   1.0000   1.0000   1.0000   1.0000   1.0000
     1.0000   1.0000   1.0000   1.0000   1.0000   1.0000   1.0000   1.0000
     1.0000   1.0000   1.0000   1.0000   1.0000   1.0000   1.0000   1.0000
     1.0000   1.0000   1.0000   1.0000   1.0000   1.0000   1.0000   1.0000
     0.0000   0.0000   0.0000   0.0000   0.0000   0.0000   0.0000   0.0000
     0.0000   0.0000   0.0000   0.0000   0.0000

     the Fermi energy is    -4.8393 ev

!    total energy              =    -672.70806774 Ry
     estimated scf accuracy    <          2.7E-09 Ry
     smearing contrib. (-TS)   =      -0.01081798 Ry
     internal energy E=F+TS    =    -672.69724975 Ry

     The total energy is F=E-TS. E is the sum of the following terms:
     one-electron contribution =  -26354.53513563 Ry
     hartree contribution      =   13220.02540646 Ry
     xc contribution           =    -178.44527617 Ry
     ewald contribution        =   12680.87942749 Ry
     electrostatic embedding   =      -0.10480321 Ry
     electrolyte free energy   =      -0.00131571 Ry
     correction to one-el term =     -40.51555299 Ry

     WARNING: you are using the parabolic pbc correction;
              the potential shift above must be added to 
              band and Fermi energies.

     convergence has been achieved in  36 iterations
     The global environment contribution to forces
     atom    1 type  1   force =    -0.00000000   -0.00000000   -0.55910698
     atom    2 type  1   force =     0.00000000    0.00000000   -0.42914031
     atom    3 type  1   force =    -0.00000000   -0.00000000   -0.25708116
     atom    4 type  1   force =     0.00000000    0.00000000   -0.08559955
     atom    5 type  1   force =    -0.00000000    0.00000000    0.08559459
     atom    6 type  1   force =    -0.00000000   -0.00000000    0.25707621
     atom    7 type  1   force =     0.00000000    0.00000000    0.42913531
     atom    8 type  1   force =    -0.00000000   -0.00000000    0.55910225
 

     Forces acting on atoms (cartesian axes, Ry/au):

     atom    1 type  1   force =     0.00000000    0.00000000   -0.00258135
     atom    2 type  1   force =     0.00000000    0.00000000    0.00586969
     atom    3 type  1   force =     0.00000000    0.00000000   -0.00186610
     atom    4 type  1   force =     0.00000000    0.00000000    0.00111356
     atom    5 type  1   force =     0.00000000    0.00000000   -0.00111356
     atom    6 type  1   force =     0.00000000    0.00000000    0.00186610
     atom    7 type  1   force =     0.00000000    0.00000000   -0.00586969
     atom    8 type  1   force =     0.00000000    0.00000000    0.00258135
     The non-local contrib.  to forces
     atom    1 type  1   force =     0.00000000    0.00000000   -0.27998547
     atom    2 type  1   force =     0.00000000    0.00000000   -0.13861190
     atom    3 type  1   force =     0.00000000    0.00000000    0.06089092
     atom    4 type  1   force =     0.00000000    0.00000000    0.01257037
     atom    5 type  1   force =     0.00000000    0.00000000   -0.01257037
     atom    6 type  1   force =     0.00000000    0.00000000   -0.06089092
     atom    7 type  1   force =     0.00000000    0.00000000    0.13861190
     atom    8 type  1   force =     0.00000000    0.00000000    0.27998547
     The ionic contribution  to forces
     atom    1 type  1   force =    -0.00000000   -0.00000000 -239.27066904
     atom    2 type  1   force =     0.00000000    0.00000000 -172.16089596
     atom    3 type  1   force =    -0.00000000   -0.00000000 -103.18769990
     atom    4 type  1   force =     0.00000000    0.00000000  -34.40075415
     atom    5 type  1   force =    -0.00000000   -0.00000000   34.40075220
     atom    6 type  1   force =     0.00000000    0.00000000  103.18770000
     atom    7 type  1   force =    -0.00000000   -0.00000000  172.16089755
     atom    8 type  1   force =     0.00000000    0.00000000  239.27066931
     The local contribution  to forces
     atom    1 type  1   force =    -0.00000000   -0.00000000  240.10196935
     atom    2 type  1   force =     0.00000000    0.00000000  172.73750228
     atom    3 type  1   force =    -0.00000000   -0.00000000  103.38147107
     atom    4 type  1   force =     0.00000000    0.00000000   34.47451158
     atom    5 type  1   force =    -0.00000000   -0.00000000  -34.47451158
     atom    6 type  1   force =     0.00000000    0.00000000 -103.38147107
     atom    7 type  1   force =    -0.00000000   -0.00000000 -172.73745134
     atom    8 type  1   force =     0.00000000    0.00000000 -240.10196935
     The core correction contribution to forces
     atom    1 type  1   force =    -0.00000000   -0.00000000    0.00533309
     atom    2 type  1   force =     0.00000000    0.00000000   -0.00279418
     atom    3 type  1   force =    -0.00000000   -0.00000000    0.00055363
     atom    4 type  1   force =     0.00000000    0.00000000    0.00035586
     atom    5 type  1   force =    -0.00000000   -0.00000000   -0.00035586
     atom    6 type  1   force =     0.00000000    0.00000000   -0.00055363
     atom    7 type  1   force =    -0.00000000   -0.00000000    0.00279705
     atom    8 type  1   force =     0.00000000    0.00000000   -0.00533309
     The Hubbard contrib.    to forces
     atom    1 type  1   force =     0.00000000    0.00000000    0.00000000
     atom    2 type  1   force =     0.00000000    0.00000000    0.00000000
     atom    3 type  1   force =     0.00000000    0.00000000    0.00000000
     atom    4 type  1   force =     0.00000000    0.00000000    0.00000000
     atom    5 type  1   force =     0.00000000    0.00000000    0.00000000
     atom    6 type  1   force =     0.00000000    0.00000000    0.00000000
     atom    7 type  1   force =     0.00000000    0.00000000    0.00000000
     atom    8 type  1   force =     0.00000000    0.00000000    0.00000000
     The SCF correction term to forces
     atom    1 type  1   force =    -0.00000000   -0.00000000   -0.00012454
     atom    2 type  1   force =    -0.00000000   -0.00000000   -0.00016504
     atom    3 type  1   force =     0.00000000    0.00000000   -0.00000309
     atom    4 type  1   force =     0.00000000    0.00000000    0.00002600
     atom    5 type  1   force =     0.00000000    0.00000000   -0.00002600
     atom    6 type  1   force =     0.00000000    0.00000000    0.00000309
     atom    7 type  1   force =    -0.00000000   -0.00000000    0.00016504
     atom    8 type  1   force =    -0.00000000   -0.00000000    0.00012454

     Total force =     0.009575     Total SCF correction =     0.000295

     Writing output data file /home/simplogic86/Work/QE1/tempdir/scf.save/
 
     init_run     :      2.24s CPU      2.54s WALL (       1 calls)
     electrons    :    237.12s CPU    320.87s WALL (       1 calls)
     forces       :      2.58s CPU      2.95s WALL (       1 calls)

     Called by init_run:
     wfcinit      :      0.61s CPU      0.74s WALL (       1 calls)
     wfcinit:atom :      0.00s CPU      0.00s WALL (       3 calls)
     wfcinit:wfcr :      0.59s CPU      0.71s WALL (       3 calls)
     potinit      :      0.41s CPU      0.46s WALL (       1 calls)
     hinit0       :      0.87s CPU      0.88s WALL (       1 calls)

     Called by electrons:
     c_bands      :    109.18s CPU    152.83s WALL (      36 calls)
     sum_band     :     31.68s CPU     48.67s WALL (      36 calls)
     v_of_rho     :      6.83s CPU      9.64s WALL (      37 calls)
     v_h          :      0.66s CPU      0.85s WALL (      37 calls)
     v_xc         :      6.39s CPU      9.06s WALL (      38 calls)
     newd         :     13.46s CPU     18.09s WALL (      37 calls)
     mix_rho      :      5.08s CPU      7.51s WALL (      36 calls)

     Called by c_bands:
     init_us_2    :      0.34s CPU      0.36s WALL (     222 calls)
     cegterg      :    105.21s CPU    147.65s WALL (     111 calls)

     Called by sum_band:
     sum_band:wei :      0.01s CPU      0.01s WALL (      36 calls)
     sum_band:loo :     16.33s CPU     24.57s WALL (      36 calls)
     sum_band:buf :      0.06s CPU      0.07s WALL (     108 calls)
     sum_band:ini :      0.17s CPU      0.19s WALL (     108 calls)
     sum_band:cal :      1.24s CPU      1.52s WALL (     108 calls)
     sum_band:bec :      0.01s CPU      0.01s WALL (     108 calls)
     addusdens    :      9.89s CPU     12.23s WALL (      36 calls)
     addusd:skk   :      0.08s CPU      0.09s WALL (      36 calls)
     addusd:dgemm :      1.79s CPU      3.92s WALL (      36 calls)
     addusd:qvan2 :      7.60s CPU      7.77s WALL (      36 calls)

     Called by *egterg:
     cdiaghg      :      5.30s CPU      5.42s WALL (     655 calls)
     cegterg:over :      7.21s CPU      8.22s WALL (     544 calls)
     cegterg:upda :      1.09s CPU      1.12s WALL (     544 calls)
     cegterg:last :      2.66s CPU      2.70s WALL (     318 calls)
     h_psi        :     82.52s CPU    123.13s WALL (     658 calls)
     s_psi        :      2.03s CPU      2.09s WALL (     658 calls)
     g_psi        :      0.08s CPU      0.08s WALL (     544 calls)

     Called by h_psi:
     h_psi:calbec :      4.98s CPU      6.04s WALL (     658 calls)
     vloc_psi     :     75.39s CPU    114.82s WALL (     658 calls)
     add_vuspsi   :      2.00s CPU      2.11s WALL (     658 calls)

     General routines
     calbec       :      6.45s CPU      7.81s WALL (     778 calls)
     fft          :      6.48s CPU     10.22s WALL (     490 calls)
     ffts         :      0.28s CPU      0.38s WALL (      73 calls)
     fftw         :     88.17s CPU    135.01s WALL (   43664 calls)
     interpolate  :      0.56s CPU      0.67s WALL (      37 calls)
 
     Parallel routines
     fft_scatt_xy :      2.26s CPU      2.78s WALL (   44227 calls)
     fft_scatt_yz :     79.55s CPU    125.41s WALL (   44227 calls)
 
     Environ routines
 
     PWSCF        :   4m 6.08s CPU   5m31.99s WALL

 
   This run was terminated on:  12:14:21  25Sep2021            

=------------------------------------------------------------------------------=
   JOB DONE.
=------------------------------------------------------------------------------=
