
     Program PWSCF v.6.3MaX starts on 15Apr2019 at 15:19:16 

     This program is part of the open-source Quantum ESPRESSO suite
     for quantum simulation of materials; please cite
         "P. Giannozzi et al., J. Phys.:Condens. Matter 21 395502 (2009);
         "P. Giannozzi et al., J. Phys.:Condens. Matter 29 465901 (2017);
          URL http://www.quantum-espresso.org", 
     in publications or presentations arising from this work. More details at
     http://www.quantum-espresso.org/quote

     Parallel version (MPI), running on     4 processors

     MPI processes distributed on     1 nodes
     R & G space division:  proc/nbgrp/npool/nimage =       4
     Waiting for input...
     Reading input from standard input
Warning: card &IONS ignored
Warning: card / ignored
Warning: card &CELL ignored
Warning: card / ignored

     Current dimensions of program PWSCF are:
     Max number of different atomic species (ntypx) = 10
     Max number of k-points (npk) =  40000
     Max angular momentum in pseudopotentials (lmaxx) =  3

     Subspace diagonalization in iterative solution of the eigenvalue problem:
     a serial algorithm will be used

 
     Parallelization info
     --------------------
     sticks:   dense  smooth     PW     G-vecs:    dense   smooth      PW
     Min         185      73     24                69391    17583    3318
     Max         186      74     25                69406    17646    3367
     Sum         741     293     97               277595    70411   13373
 


     bravais-lattice index     =            0
     lattice parameter (alat)  =       5.5435  a.u.
     unit-cell volume          =    3161.5726 (a.u.)^3
     number of atoms/cell      =            8
     number of atomic types    =            1
     number of electrons       =        87.50
     number of Kohn-Sham states=           53
     kinetic-energy cutoff     =      30.0000  Ry
     charge density cutoff     =     300.0000  Ry
     convergence threshold     =      5.0E-09
     mixing beta               =       0.7000
     number of iterations used =            8  plain     mixing
     Exchange-correlation      = PBE ( 1  4  3  4 0 0)
 

     Environ Module
     ==============

     Plese cite
         O. Andreussi, I. Dabo and N. Marzari, J. Chem. Phys. 136, 064102 (2012)         
     in publications or presentations arising from this work.

     compensation onset threshold      =               0.1000E+03 
     static permittivity               =                    80.00 
     epsilon calculation mode          =                     full 

     Electrostatic Setup
     -------------------
     electrostatic problem to solve    = generalized              
     numerical solver adopted          = iterative                
     type of auxiliary density adopted = full                     
     type of core tool for poisson     = fft                      
     type of core tool for s(r) deriv  = analytic                 



     celldm(1)=   5.543526  celldm(2)=   0.000000  celldm(3)=   0.000000
     celldm(4)=   0.000000  celldm(5)=   0.000000  celldm(6)=   0.000000

     crystal axes: (cart. coord. in units of alat)
               a(1) = (   1.000000   0.000000   0.000000 )  
               a(2) = (   0.000000   1.000000   0.000000 )  
               a(3) = (   0.000000   0.000000  18.558586 )  

     reciprocal axes: (cart. coord. in units 2 pi/alat)
               b(1) = (  1.000000  0.000000  0.000000 )  
               b(2) = (  0.000000  1.000000  0.000000 )  
               b(3) = (  0.000000  0.000000  0.053883 )  


     PseudoPot. # 1 for Ag read from file:
     /home/fnattino/Programs/quantumespresso/q-e-qe-6.3-develop/pseudo/Ag.pbe-n-rrkjus_psl.1.0.0.UPF
     MD5 check sum: d841cbfac2b0861aec33b46768a516bf
     Pseudo is Ultrasoft + core correction, Zval = 11.0
     Generated using "atomic" code by A. Dal Corso v.6.2.2
     Using radial grid of 1237 points,  6 beta functions with: 
                l(1) =   0
                l(2) =   0
                l(3) =   1
                l(4) =   1
                l(5) =   2
                l(6) =   2
     Q(r) pseudized with 0 coefficients 


     atomic species   valence    mass     pseudopotential
        Ag            11.00   107.86820     Ag( 1.00)

     16 Sym. Ops., with inversion, found ( 8 have fractional translation)


                                    s                        frac. trans.

      isym =  1     identity                                     

 cryst.   s( 1) = (     1          0          0      )
                  (     0          1          0      )
                  (     0          0          1      )

 cart.    s( 1) = (  1.0000000  0.0000000  0.0000000 )
                  (  0.0000000  1.0000000  0.0000000 )
                  (  0.0000000  0.0000000  1.0000000 )


      isym =  2     180 deg rotation - cart. axis [0,0,1]        

 cryst.   s( 2) = (    -1          0          0      )
                  (     0         -1          0      )
                  (     0          0          1      )

 cart.    s( 2) = ( -1.0000000  0.0000000  0.0000000 )
                  (  0.0000000 -1.0000000  0.0000000 )
                  (  0.0000000  0.0000000  1.0000000 )


      isym =  3     180 deg rotation - cart. axis [0,1,0]        

 cryst.   s( 3) = (    -1          0          0      )    f =(  0.5000000 )
                  (     0          1          0      )       (  0.5000000 )
                  (     0          0         -1      )       ( -0.0000000 )

 cart.    s( 3) = ( -1.0000000  0.0000000  0.0000000 )    f =(  0.5000000 )
                  (  0.0000000  1.0000000  0.0000000 )       (  0.5000000 )
                  (  0.0000000  0.0000000 -1.0000000 )       ( -0.0000000 )


      isym =  4     180 deg rotation - cart. axis [1,0,0]        

 cryst.   s( 4) = (     1          0          0      )    f =(  0.5000000 )
                  (     0         -1          0      )       (  0.5000000 )
                  (     0          0         -1      )       ( -0.0000000 )

 cart.    s( 4) = (  1.0000000  0.0000000  0.0000000 )    f =(  0.5000000 )
                  (  0.0000000 -1.0000000  0.0000000 )       (  0.5000000 )
                  (  0.0000000  0.0000000 -1.0000000 )       ( -0.0000000 )


      isym =  5     180 deg rotation - cart. axis [1,1,0]        

 cryst.   s( 5) = (     0          1          0      )    f =(  0.5000000 )
                  (     1          0          0      )       (  0.5000000 )
                  (     0          0         -1      )       ( -0.0000000 )

 cart.    s( 5) = (  0.0000000  1.0000000  0.0000000 )    f =(  0.5000000 )
                  (  1.0000000  0.0000000  0.0000000 )       (  0.5000000 )
                  (  0.0000000  0.0000000 -1.0000000 )       ( -0.0000000 )


      isym =  6     180 deg rotation - cart. axis [1,-1,0]       

 cryst.   s( 6) = (     0         -1          0      )    f =(  0.5000000 )
                  (    -1          0          0      )       (  0.5000000 )
                  (     0          0         -1      )       ( -0.0000000 )

 cart.    s( 6) = (  0.0000000 -1.0000000  0.0000000 )    f =(  0.5000000 )
                  ( -1.0000000  0.0000000  0.0000000 )       (  0.5000000 )
                  (  0.0000000  0.0000000 -1.0000000 )       ( -0.0000000 )


      isym =  7      90 deg rotation - cart. axis [0,0,-1]       

 cryst.   s( 7) = (     0         -1          0      )
                  (     1          0          0      )
                  (     0          0          1      )

 cart.    s( 7) = (  0.0000000  1.0000000  0.0000000 )
                  ( -1.0000000  0.0000000  0.0000000 )
                  (  0.0000000  0.0000000  1.0000000 )


      isym =  8      90 deg rotation - cart. axis [0,0,1]        

 cryst.   s( 8) = (     0          1          0      )
                  (    -1          0          0      )
                  (     0          0          1      )

 cart.    s( 8) = (  0.0000000 -1.0000000  0.0000000 )
                  (  1.0000000  0.0000000  0.0000000 )
                  (  0.0000000  0.0000000  1.0000000 )


      isym =  9     inversion                                    

 cryst.   s( 9) = (    -1          0          0      )    f =(  0.5000000 )
                  (     0         -1          0      )       (  0.5000000 )
                  (     0          0         -1      )       ( -0.0000000 )

 cart.    s( 9) = ( -1.0000000  0.0000000  0.0000000 )    f =(  0.5000000 )
                  (  0.0000000 -1.0000000  0.0000000 )       (  0.5000000 )
                  (  0.0000000  0.0000000 -1.0000000 )       ( -0.0000000 )


      isym = 10     inv. 180 deg rotation - cart. axis [0,0,1]   

 cryst.   s(10) = (     1          0          0      )    f =(  0.5000000 )
                  (     0          1          0      )       (  0.5000000 )
                  (     0          0         -1      )       ( -0.0000000 )

 cart.    s(10) = (  1.0000000  0.0000000  0.0000000 )    f =(  0.5000000 )
                  (  0.0000000  1.0000000  0.0000000 )       (  0.5000000 )
                  (  0.0000000  0.0000000 -1.0000000 )       ( -0.0000000 )


      isym = 11     inv. 180 deg rotation - cart. axis [0,1,0]   

 cryst.   s(11) = (     1          0          0      )
                  (     0         -1          0      )
                  (     0          0          1      )

 cart.    s(11) = (  1.0000000  0.0000000  0.0000000 )
                  (  0.0000000 -1.0000000  0.0000000 )
                  (  0.0000000  0.0000000  1.0000000 )


      isym = 12     inv. 180 deg rotation - cart. axis [1,0,0]   

 cryst.   s(12) = (    -1          0          0      )
                  (     0          1          0      )
                  (     0          0          1      )

 cart.    s(12) = ( -1.0000000  0.0000000  0.0000000 )
                  (  0.0000000  1.0000000  0.0000000 )
                  (  0.0000000  0.0000000  1.0000000 )


      isym = 13     inv. 180 deg rotation - cart. axis [1,1,0]   

 cryst.   s(13) = (     0         -1          0      )
                  (    -1          0          0      )
                  (     0          0          1      )

 cart.    s(13) = (  0.0000000 -1.0000000  0.0000000 )
                  ( -1.0000000  0.0000000  0.0000000 )
                  (  0.0000000  0.0000000  1.0000000 )


      isym = 14     inv. 180 deg rotation - cart. axis [1,-1,0]  

 cryst.   s(14) = (     0          1          0      )
                  (     1          0          0      )
                  (     0          0          1      )

 cart.    s(14) = (  0.0000000  1.0000000  0.0000000 )
                  (  1.0000000  0.0000000  0.0000000 )
                  (  0.0000000  0.0000000  1.0000000 )


      isym = 15     inv.  90 deg rotation - cart. axis [0,0,-1]  

 cryst.   s(15) = (     0          1          0      )    f =(  0.5000000 )
                  (    -1          0          0      )       (  0.5000000 )
                  (     0          0         -1      )       ( -0.0000000 )

 cart.    s(15) = (  0.0000000 -1.0000000  0.0000000 )    f =(  0.5000000 )
                  (  1.0000000  0.0000000  0.0000000 )       (  0.5000000 )
                  (  0.0000000  0.0000000 -1.0000000 )       ( -0.0000000 )


      isym = 16     inv.  90 deg rotation - cart. axis [0,0,1]   

 cryst.   s(16) = (     0         -1          0      )    f =(  0.5000000 )
                  (     1          0          0      )       (  0.5000000 )
                  (     0          0         -1      )       ( -0.0000000 )

 cart.    s(16) = (  0.0000000  1.0000000  0.0000000 )    f =(  0.5000000 )
                  ( -1.0000000  0.0000000  0.0000000 )       (  0.5000000 )
                  (  0.0000000  0.0000000 -1.0000000 )       ( -0.0000000 )


   Cartesian axes

     site n.     atom                  positions (alat units)
         1           Ag  tau(   1) = (   0.5000000   0.5000000   6.8177767  )
         2           Ag  tau(   2) = (   0.0000000   0.0000000   7.5110323  )
         3           Ag  tau(   3) = (   0.5000000   0.5000000   8.2185960  )
         4           Ag  tau(   4) = (   0.0000000   0.0000000   8.9261320  )
         5           Ag  tau(   5) = (   0.5000000   0.5000000   9.6324544  )
         6           Ag  tau(   6) = (   0.0000000   0.0000000  10.3399904  )
         7           Ag  tau(   7) = (   0.5000000   0.5000000  11.0475540  )
         8           Ag  tau(   8) = (   0.0000000   0.0000000  11.7408097  )

   Crystallographic axes

     site n.     atom                  positions (cryst. coord.)
         1           Ag  tau(   1) = (  0.5000000  0.5000000  0.3673651  )
         2           Ag  tau(   2) = (  0.0000000  0.0000000  0.4047201  )
         3           Ag  tau(   3) = (  0.5000000  0.5000000  0.4428460  )
         4           Ag  tau(   4) = (  0.0000000  0.0000000  0.4809705  )
         5           Ag  tau(   5) = (  0.5000000  0.5000000  0.5190295  )
         6           Ag  tau(   6) = (  0.0000000  0.0000000  0.5571540  )
         7           Ag  tau(   7) = (  0.5000000  0.5000000  0.5952799  )
         8           Ag  tau(   8) = (  0.0000000  0.0000000  0.6326349  )

     number of k points=     3  Marzari-Vanderbilt smearing, width (Ry)=  0.0200
                       cart. coord. in units 2pi/alat
        k(    1) = (   0.0000000   0.0000000   0.0000000), wk =   0.5000000
        k(    2) = (   0.0000000  -0.5000000   0.0000000), wk =   1.0000000
        k(    3) = (  -0.5000000  -0.5000000   0.0000000), wk =   0.5000000

                       cryst. coord.
        k(    1) = (   0.0000000   0.0000000   0.0000000), wk =   0.5000000
        k(    2) = (   0.0000000  -0.5000000   0.0000000), wk =   1.0000000
        k(    3) = (  -0.5000000  -0.5000000   0.0000000), wk =   0.5000000

     Dense  grid:   277595 G-vectors     FFT dimensions: (  32,  32, 576)

     Smooth grid:    70411 G-vectors     FFT dimensions: (  20,  20, 360)

     Dynamical RAM for                 wfc:       1.77 MB

     Dynamical RAM for     wfc (w. buffer):       7.09 MB

     Dynamical RAM for           str. fact:       1.06 MB

     Dynamical RAM for           local pot:       0.00 MB

     Dynamical RAM for          nlocal pot:       4.82 MB

     Dynamical RAM for                qrad:       1.23 MB

     Dynamical RAM for          rho,v,vnew:       6.55 MB

     Dynamical RAM for               rhoin:       2.18 MB

     Dynamical RAM for            rho*nmix:      16.94 MB

     Dynamical RAM for           G-vectors:       4.10 MB

     Dynamical RAM for          h,s,v(r/c):       2.06 MB

     Dynamical RAM for          <psi|beta>:       0.12 MB

     Dynamical RAM for                 psi:       7.09 MB

     Dynamical RAM for                hpsi:       7.09 MB

     Dynamical RAM for                spsi:       7.09 MB

     Dynamical RAM for      wfcinit/wfcrot:       4.94 MB

     Dynamical RAM for           addusdens:     205.41 MB

     Dynamical RAM for          addusforce:     220.80 MB

     Estimated static dynamical RAM per process >      51.72 MB

     Estimated max dynamical RAM per process >     272.52 MB

     Estimated total dynamical RAM >       1.06 GB
 WARNING: significant discrepancy between the numerical and the expected erfc ch
 arge
 WARNING: significant discrepancy between the numerical and the expected erfc ch
 arge
 WARNING: significant discrepancy between the numerical and the expected erfc ch
 arge

     Initial potential from superposition of free atoms
     Check: negative starting charge=   -0.000314

     starting charge   87.99681, renormalised to   87.50000

     negative rho (up, down):  3.125E-04 0.000E+00
     Starting wfcs are   72 randomized atomic wfcs

     total cpu time spent up to now is        2.4 secs

     Self-consistent Calculation

     iteration #  1     ecut=    30.00 Ry     beta= 0.70
     Davidson diagonalization with overlap
     ethr =  1.00E-02,  avg # of iterations =  5.0

     negative rho (up, down):  8.539E-08 0.000E+00

     total cpu time spent up to now is        3.7 secs

     total energy              =    -541.37578600 Ry
     Harris-Foulkes estimate   =    -675.85391443 Ry
     estimated scf accuracy    <     148.94687794 Ry
     electrostatic embedding   =       0.02186097 Ry
     electrolyte free energy   =       0.00062421 Ry
     correction to one-el term =       0.00000000 Ry

     iteration #  2     ecut=    30.00 Ry     beta= 0.70
     Davidson diagonalization with overlap
     c_bands:  1 eigenvalues not converged
     ethr =  1.00E-02,  avg # of iterations = 18.3

     negative rho (up, down):  9.054E-05 0.000E+00

     total cpu time spent up to now is        7.7 secs

     total energy              =    -547.18834430 Ry
     Harris-Foulkes estimate   =   -1816.19203693 Ry
     estimated scf accuracy    <    9715.33552668 Ry
     electrostatic embedding   =       0.02186097 Ry
     electrolyte free energy   =       0.00062421 Ry
     correction to one-el term =       0.00000000 Ry

     iteration #  3     ecut=    30.00 Ry     beta= 0.70
     Davidson diagonalization with overlap
     ethr =  1.00E-02,  avg # of iterations = 11.0

     negative rho (up, down):  3.348E-04 0.000E+00

     total cpu time spent up to now is       10.2 secs

     total energy              =    -628.51729458 Ry
     Harris-Foulkes estimate   =    -888.98525695 Ry
     estimated scf accuracy    <    3051.91030956 Ry
     electrostatic embedding   =       0.02186097 Ry
     electrolyte free energy   =       0.00062421 Ry
     correction to one-el term =       0.00000000 Ry

     iteration #  4     ecut=    30.00 Ry     beta= 0.70
     Davidson diagonalization with overlap
     ethr =  1.00E-02,  avg # of iterations = 14.0

     negative rho (up, down):  1.394E-04 0.000E+00

     total cpu time spent up to now is       12.6 secs

     total energy              =    -668.52296417 Ry
     Harris-Foulkes estimate   =    -682.48074524 Ry
     estimated scf accuracy    <     198.50302426 Ry
     electrostatic embedding   =       0.02186097 Ry
     electrolyte free energy   =       0.00062421 Ry
     correction to one-el term =       0.00000000 Ry

     iteration #  5     ecut=    30.00 Ry     beta= 0.70
     Davidson diagonalization with overlap
     ethr =  1.00E-02,  avg # of iterations =  7.3

     negative rho (up, down):  2.700E-05 0.000E+00

     add environment contribution to local potential

     total cpu time spent up to now is       14.9 secs

     total energy              =    -670.55399217 Ry
     Harris-Foulkes estimate   =    -678.99957166 Ry
     estimated scf accuracy    <      66.54786154 Ry
     electrostatic embedding   =       0.02186097 Ry
     electrolyte free energy   =       0.00062421 Ry
     correction to one-el term =       0.00000000 Ry

     iteration #  6     ecut=    30.00 Ry     beta= 0.70
     Davidson diagonalization with overlap
     ethr =  1.00E-02,  avg # of iterations =  3.7

     negative rho (up, down):  1.614E-07 0.000E+00

     add environment contribution to local potential

     total cpu time spent up to now is       16.7 secs

     total energy              =    -674.12757506 Ry
     Harris-Foulkes estimate   =    -651.60037663 Ry
     estimated scf accuracy    <       3.90642629 Ry
     electrostatic embedding   =      -0.18210549 Ry
     electrolyte free energy   =      -0.00173842 Ry
     correction to one-el term =     -22.73884303 Ry

     iteration #  7     ecut=    30.00 Ry     beta= 0.70
     Davidson diagonalization with overlap
     ethr =  4.46E-03,  avg # of iterations =  1.0

     negative rho (up, down):  5.398E-08 0.000E+00

     add environment contribution to local potential

     total cpu time spent up to now is       18.3 secs

     total energy              =    -673.79996197 Ry
     Harris-Foulkes estimate   =    -652.98249883 Ry
     estimated scf accuracy    <       3.05881657 Ry
     electrostatic embedding   =      -0.21021342 Ry
     electrolyte free energy   =      -0.00227103 Ry
     correction to one-el term =     -21.06590726 Ry

     iteration #  8     ecut=    30.00 Ry     beta= 0.70
     Davidson diagonalization with overlap
     ethr =  3.50E-03,  avg # of iterations =  1.0

     negative rho (up, down):  1.212E-07 0.000E+00

     add environment contribution to local potential

     total cpu time spent up to now is       19.9 secs

     total energy              =    -673.70969777 Ry
     Harris-Foulkes estimate   =    -649.18738862 Ry
     estimated scf accuracy    <       7.56808544 Ry
     electrostatic embedding   =      -0.24728434 Ry
     electrolyte free energy   =      -0.00259777 Ry
     correction to one-el term =     -24.55100856 Ry

     iteration #  9     ecut=    30.00 Ry     beta= 0.70
     Davidson diagonalization with overlap
     ethr =  3.50E-03,  avg # of iterations =  1.0

     negative rho (up, down):  2.209E-07 0.000E+00

     add environment contribution to local potential

     total cpu time spent up to now is       21.6 secs

     total energy              =    -673.50803784 Ry
     Harris-Foulkes estimate   =    -643.41876757 Ry
     estimated scf accuracy    <       5.98665745 Ry
     electrostatic embedding   =      -0.26766251 Ry
     electrolyte free energy   =      -0.00239201 Ry
     correction to one-el term =     -30.03458804 Ry

     iteration # 10     ecut=    30.00 Ry     beta= 0.70
     Davidson diagonalization with overlap
     ethr =  3.50E-03,  avg # of iterations =  1.0

     negative rho (up, down):  3.861E-06 0.000E+00

     add environment contribution to local potential

     total cpu time spent up to now is       23.3 secs

     total energy              =    -672.80711523 Ry
     Harris-Foulkes estimate   =    -635.17313712 Ry
     estimated scf accuracy    <       6.86028801 Ry
     electrostatic embedding   =      -0.29877286 Ry
     electrolyte free energy   =      -0.00216125 Ry
     correction to one-el term =     -38.04015469 Ry

     iteration # 11     ecut=    30.00 Ry     beta= 0.70
     Davidson diagonalization with overlap
     ethr =  3.50E-03,  avg # of iterations =  1.3

     add environment contribution to local potential

     total cpu time spent up to now is       25.3 secs

     total energy              =    -672.85450450 Ry
     Harris-Foulkes estimate   =    -605.70378113 Ry
     estimated scf accuracy    <       1.26547711 Ry
     electrostatic embedding   =      -0.34313664 Ry
     electrolyte free energy   =      -0.00130289 Ry
     correction to one-el term =     -66.82578157 Ry

     iteration # 12     ecut=    30.00 Ry     beta= 0.70
     Davidson diagonalization with overlap
     ethr =  1.45E-03,  avg # of iterations =  6.3

     negative rho (up, down):  1.623E-08 0.000E+00

     add environment contribution to local potential

     total cpu time spent up to now is       27.5 secs

     total energy              =    -672.93291595 Ry
     Harris-Foulkes estimate   =    -627.69554442 Ry
     estimated scf accuracy    <       5.39818493 Ry
     electrostatic embedding   =      -0.13014678 Ry
     electrolyte free energy   =      -0.00126275 Ry
     correction to one-el term =     -45.17497170 Ry

     iteration # 13     ecut=    30.00 Ry     beta= 0.70
     Davidson diagonalization with overlap
     ethr =  1.45E-03,  avg # of iterations =  1.0

     negative rho (up, down):  1.364E-06 0.000E+00

     add environment contribution to local potential

     total cpu time spent up to now is       29.3 secs

     total energy              =    -672.87084501 Ry
     Harris-Foulkes estimate   =    -633.47395618 Ry
     estimated scf accuracy    <       4.27296589 Ry
     electrostatic embedding   =      -0.10106727 Ry
     electrolyte free energy   =      -0.00126754 Ry
     correction to one-el term =     -39.37979940 Ry

     iteration # 14     ecut=    30.00 Ry     beta= 0.70
     Davidson diagonalization with overlap
     ethr =  1.45E-03,  avg # of iterations =  1.0

     negative rho (up, down):  1.437E-06 0.000E+00

     add environment contribution to local potential

     total cpu time spent up to now is       31.4 secs

     total energy              =    -672.81179993 Ry
     Harris-Foulkes estimate   =    -634.01641596 Ry
     estimated scf accuracy    <       3.68900219 Ry
     electrostatic embedding   =      -0.09775040 Ry
     electrolyte free energy   =      -0.00126676 Ry
     correction to one-el term =     -38.76430108 Ry

     iteration # 15     ecut=    30.00 Ry     beta= 0.70
     Davidson diagonalization with overlap
     ethr =  1.45E-03,  avg # of iterations =  1.0

     negative rho (up, down):  1.148E-06 0.000E+00

     add environment contribution to local potential

     total cpu time spent up to now is       33.3 secs

     total energy              =    -672.80286088 Ry
     Harris-Foulkes estimate   =    -634.27026350 Ry
     estimated scf accuracy    <       2.77552766 Ry
     electrostatic embedding   =      -0.09662749 Ry
     electrolyte free energy   =      -0.00126673 Ry
     correction to one-el term =     -38.45146629 Ry

     iteration # 16     ecut=    30.00 Ry     beta= 0.70
     Davidson diagonalization with overlap
     ethr =  1.45E-03,  avg # of iterations =  1.0

     negative rho (up, down):  2.836E-07 0.000E+00

     add environment contribution to local potential

     total cpu time spent up to now is       35.2 secs

     total energy              =    -672.69972086 Ry
     Harris-Foulkes estimate   =    -634.42320799 Ry
     estimated scf accuracy    <       2.49899420 Ry
     electrostatic embedding   =      -0.09545862 Ry
     electrolyte free energy   =      -0.00126643 Ry
     correction to one-el term =     -38.28435917 Ry

     iteration # 17     ecut=    30.00 Ry     beta= 0.70
     Davidson diagonalization with overlap
     ethr =  1.45E-03,  avg # of iterations =  1.0

     negative rho (up, down):  5.678E-06 0.000E+00

     add environment contribution to local potential

     total cpu time spent up to now is       37.0 secs

     total energy              =    -672.72734107 Ry
     Harris-Foulkes estimate   =    -632.75569101 Ry
     estimated scf accuracy    <       0.37163061 Ry
     electrostatic embedding   =      -0.10283600 Ry
     electrolyte free energy   =      -0.00126636 Ry
     correction to one-el term =     -39.86219946 Ry

     iteration # 18     ecut=    30.00 Ry     beta= 0.70
     Davidson diagonalization with overlap
     ethr =  4.25E-04,  avg # of iterations =  2.3

     add environment contribution to local potential

     total cpu time spent up to now is       39.0 secs

     total energy              =    -672.68724224 Ry
     Harris-Foulkes estimate   =    -633.47750300 Ry
     estimated scf accuracy    <       0.43970778 Ry
     electrostatic embedding   =      -0.09912187 Ry
     electrolyte free energy   =      -0.00126631 Ry
     correction to one-el term =     -39.15001583 Ry

     iteration # 19     ecut=    30.00 Ry     beta= 0.70
     Davidson diagonalization with overlap
     ethr =  4.25E-04,  avg # of iterations =  2.0

     add environment contribution to local potential

     total cpu time spent up to now is       40.8 secs

     total energy              =    -672.70207307 Ry
     Harris-Foulkes estimate   =    -630.71992761 Ry
     estimated scf accuracy    <       0.19555483 Ry
     electrostatic embedding   =      -0.11221375 Ry
     electrolyte free energy   =      -0.00126706 Ry
     correction to one-el term =     -41.87791297 Ry

     iteration # 20     ecut=    30.00 Ry     beta= 0.70
     Davidson diagonalization with overlap
     ethr =  2.23E-04,  avg # of iterations =  2.3

     add environment contribution to local potential

     total cpu time spent up to now is       42.6 secs

     total energy              =    -672.70759893 Ry
     Harris-Foulkes estimate   =    -632.34275598 Ry
     estimated scf accuracy    <       0.00453270 Ry
     electrostatic embedding   =      -0.10482934 Ry
     electrolyte free energy   =      -0.00126731 Ry
     correction to one-el term =     -40.25934986 Ry

     iteration # 21     ecut=    30.00 Ry     beta= 0.70
     Davidson diagonalization with overlap
     c_bands:  1 eigenvalues not converged
     ethr =  5.18E-06,  avg # of iterations = 10.7

     add environment contribution to local potential

     total cpu time spent up to now is       44.8 secs

     total energy              =    -672.70806036 Ry
     Harris-Foulkes estimate   =    -632.56381851 Ry
     estimated scf accuracy    <       0.00157945 Ry
     electrostatic embedding   =      -0.10365913 Ry
     electrolyte free energy   =      -0.00126738 Ry
     correction to one-el term =     -40.03955174 Ry

     iteration # 22     ecut=    30.00 Ry     beta= 0.70
     Davidson diagonalization with overlap
     ethr =  1.81E-06,  avg # of iterations =  3.0

     add environment contribution to local potential

     total cpu time spent up to now is       46.5 secs

     total energy              =    -672.70819784 Ry
     Harris-Foulkes estimate   =    -632.21244730 Ry
     estimated scf accuracy    <       0.01802374 Ry
     electrostatic embedding   =      -0.10491173 Ry
     electrolyte free energy   =      -0.00126746 Ry
     correction to one-el term =     -40.38972304 Ry

     iteration # 23     ecut=    30.00 Ry     beta= 0.70
     Davidson diagonalization with overlap
     ethr =  1.81E-06,  avg # of iterations =  1.0

     add environment contribution to local potential

     total cpu time spent up to now is       48.4 secs

     total energy              =    -672.70784867 Ry
     Harris-Foulkes estimate   =    -632.14185189 Ry
     estimated scf accuracy    <       0.00861504 Ry
     electrostatic embedding   =      -0.10514436 Ry
     electrolyte free energy   =      -0.00126749 Ry
     correction to one-el term =     -40.45998399 Ry

     iteration # 24     ecut=    30.00 Ry     beta= 0.70
     Davidson diagonalization with overlap
     ethr =  1.81E-06,  avg # of iterations =  6.3

     add environment contribution to local potential

     total cpu time spent up to now is       50.2 secs

     total energy              =    -672.70810169 Ry
     Harris-Foulkes estimate   =    -632.00557962 Ry
     estimated scf accuracy    <       0.01148359 Ry
     electrostatic embedding   =      -0.10548381 Ry
     electrolyte free energy   =      -0.00126756 Ry
     correction to one-el term =     -40.59596938 Ry

     iteration # 25     ecut=    30.00 Ry     beta= 0.70
     Davidson diagonalization with overlap
     ethr =  1.81E-06,  avg # of iterations =  1.0

     add environment contribution to local potential

     total cpu time spent up to now is       51.9 secs

     total energy              =    -672.70816136 Ry
     Harris-Foulkes estimate   =    -632.09483569 Ry
     estimated scf accuracy    <       0.00066208 Ry
     electrostatic embedding   =      -0.10501116 Ry
     electrolyte free energy   =      -0.00126758 Ry
     correction to one-el term =     -40.50706255 Ry

     iteration # 26     ecut=    30.00 Ry     beta= 0.70
     Davidson diagonalization with overlap
     ethr =  7.57E-07,  avg # of iterations =  1.0

     add environment contribution to local potential

     total cpu time spent up to now is       53.5 secs

     total energy              =    -672.70817157 Ry
     Harris-Foulkes estimate   =    -632.09609025 Ry
     estimated scf accuracy    <       0.00000318 Ry
     electrostatic embedding   =      -0.10489182 Ry
     electrolyte free energy   =      -0.00126760 Ry
     correction to one-el term =     -40.50592208 Ry

     iteration # 27     ecut=    30.00 Ry     beta= 0.70
     Davidson diagonalization with overlap
     ethr =  3.63E-09,  avg # of iterations =  5.3

     add environment contribution to local potential

     total cpu time spent up to now is       55.4 secs

     total energy              =    -672.70817285 Ry
     Harris-Foulkes estimate   =    -632.07975284 Ry
     estimated scf accuracy    <       0.00000115 Ry
     electrostatic embedding   =      -0.10491924 Ry
     electrolyte free energy   =      -0.00126761 Ry
     correction to one-el term =     -40.52223320 Ry

     iteration # 28     ecut=    30.00 Ry     beta= 0.70
     Davidson diagonalization with overlap
     ethr =  1.31E-09,  avg # of iterations =  2.7

     add environment contribution to local potential

     total cpu time spent up to now is       57.2 secs

     total energy              =    -672.70817329 Ry
     Harris-Foulkes estimate   =    -632.06551388 Ry
     estimated scf accuracy    <       0.00000047 Ry
     electrostatic embedding   =      -0.10493613 Ry
     electrolyte free energy   =      -0.00126762 Ry
     correction to one-el term =     -40.53645569 Ry

     iteration # 29     ecut=    30.00 Ry     beta= 0.70
     Davidson diagonalization with overlap
     ethr =  5.33E-10,  avg # of iterations =  2.7

     add environment contribution to local potential

     total cpu time spent up to now is       58.9 secs

     total energy              =    -672.70817341 Ry
     Harris-Foulkes estimate   =    -632.05759094 Ry
     estimated scf accuracy    <       0.00000004 Ry
     electrostatic embedding   =      -0.10494615 Ry
     electrolyte free energy   =      -0.00126763 Ry
     correction to one-el term =     -40.54436870 Ry

     iteration # 30     ecut=    30.00 Ry     beta= 0.70
     Davidson diagonalization with overlap
     ethr =  4.75E-11,  avg # of iterations =  4.0

     add environment contribution to local potential

     total cpu time spent up to now is       60.7 secs

     total energy              =    -672.70817343 Ry
     Harris-Foulkes estimate   =    -632.05001562 Ry
     estimated scf accuracy    <          8.7E-09 Ry
     electrostatic embedding   =      -0.10495869 Ry
     electrolyte free energy   =      -0.00126763 Ry
     correction to one-el term =     -40.55193149 Ry

     iteration # 31     ecut=    30.00 Ry     beta= 0.70
     Davidson diagonalization with overlap
     ethr =  9.97E-12,  avg # of iterations =  3.3

     the potential shift due to the Gaussian-smeared nuclei is    -0.5949 ev

     total cpu time spent up to now is       61.8 secs

     End of self-consistent calculation

          k = 0.0000 0.0000 0.0000 (  8687 PWs)   bands (ev):

   -11.8342 -11.5209 -11.0383 -10.6007 -10.5173 -10.5146 -10.4994 -10.4211
   -10.3019 -10.2569 -10.1511  -9.9921  -9.7920  -9.5654  -9.2760  -9.0787
    -9.0534  -9.0534  -9.0112  -9.0112  -8.7715  -8.7715  -8.4820  -8.3972
    -8.3900  -8.3900  -8.2564  -8.2546  -8.1950  -8.1124  -8.0753  -8.0753
    -7.9928  -7.8694  -7.7839  -7.7839  -7.7829  -7.6157  -7.5098  -7.4246
    -7.4246  -7.4205  -7.3369  -7.1924  -7.1924  -6.1987  -4.6154  -2.8743
    -2.3610   0.0562   0.0680   0.3566   0.4783

     occupation numbers 
     1.0000   1.0000   1.0000   1.0000   1.0000   1.0000   1.0000   1.0000
     1.0000   1.0000   1.0000   1.0000   1.0000   1.0000   1.0000   1.0000
     1.0000   1.0000   1.0000   1.0000   1.0000   1.0000   1.0000   1.0000
     1.0000   1.0000   1.0000   1.0000   1.0000   1.0000   1.0000   1.0000
     1.0000   1.0000   1.0000   1.0000   1.0000   1.0000   1.0000   1.0000
     1.0000   1.0000   1.0000   1.0000   1.0000   1.0000   0.0578   0.0000
     0.0000   0.0000   0.0000   0.0000   0.0000

          k = 0.0000-0.5000 0.0000 (  8814 PWs)   bands (ev):

   -10.5295 -10.5294 -10.4338 -10.4337 -10.1704 -10.1704  -9.7755  -9.7754
    -9.3730  -9.3729  -9.3303  -9.3303  -9.1462  -9.1461  -9.1439  -9.1438
    -9.0385  -9.0385  -9.0294  -9.0293  -8.8227  -8.8227  -8.7819  -8.7819
    -8.5307  -8.5306  -8.3766  -8.3766  -8.0627  -8.0626  -7.8911  -7.8911
    -7.8765  -7.8764  -7.5682  -7.5682  -7.4516  -7.4515  -7.3470  -7.3470
    -5.0399  -5.0398  -4.9719  -4.9718  -4.8723  -4.8723  -4.5613  -4.5612
    -1.5577  -1.5576  -0.3402  -0.3402   1.0464

     occupation numbers 
     1.0000   1.0000   1.0000   1.0000   1.0000   1.0000   1.0000   1.0000
     1.0000   1.0000   1.0000   1.0000   1.0000   1.0000   1.0000   1.0000
     1.0000   1.0000   1.0000   1.0000   1.0000   1.0000   1.0000   1.0000
     1.0000   1.0000   1.0000   1.0000   1.0000   1.0000   1.0000   1.0000
     1.0000   1.0000   1.0000   1.0000   1.0000   1.0000   1.0000   1.0000
     0.9279   0.9277   0.7743   0.7742   0.5039   0.5038   0.0297   0.0297
     0.0000   0.0000   0.0000   0.0000   0.0000

          k =-0.5000-0.5000 0.0000 (  8868 PWs)   bands (ev):

   -10.5818 -10.5817 -10.4611 -10.4611 -10.4062 -10.4062 -10.3137 -10.3137
   -10.2121 -10.2120 -10.0336 -10.0336  -9.9211  -9.9211  -9.5187  -9.5187
    -8.9691  -8.9691  -8.4351  -8.4351  -8.0676  -8.0675  -7.9681  -7.9681
    -7.8308  -7.8308  -7.6422  -7.6422  -7.5503  -7.5502  -7.3857  -7.3857
    -7.3271  -7.3271  -7.3028  -7.3027  -7.1269  -7.1268  -7.0295  -7.0294
    -2.5983  -2.5983  -1.9325  -1.9325  -0.9299  -0.9299   0.3663   0.3663
     1.7908   1.7908   1.8965   1.8967   1.9746

     occupation numbers 
     1.0000   1.0000   1.0000   1.0000   1.0000   1.0000   1.0000   1.0000
     1.0000   1.0000   1.0000   1.0000   1.0000   1.0000   1.0000   1.0000
     1.0000   1.0000   1.0000   1.0000   1.0000   1.0000   1.0000   1.0000
     1.0000   1.0000   1.0000   1.0000   1.0000   1.0000   1.0000   1.0000
     1.0000   1.0000   1.0000   1.0000   1.0000   1.0000   1.0000   1.0000
     0.0000   0.0000   0.0000   0.0000   0.0000   0.0000   0.0000   0.0000
     0.0000   0.0000   0.0000   0.0000   0.0000

     the Fermi energy is    -4.8330 ev

!    total energy              =    -672.70817342 Ry
     Harris-Foulkes estimate   =    -632.04758335 Ry
     estimated scf accuracy    <          1.7E-09 Ry

     The total energy is the sum of the following terms:

     one-electron contribution =  -26354.49302466 Ry
     hartree contribution      =   13220.02210970 Ry
     xc contribution           =    -178.44521991 Ry
     ewald contribution        =   12680.87937206 Ry
     smearing contrib. (-TS)   =      -0.01082054 Ry
     electrostatic embedding   =      -0.10496138 Ry
     electrolyte free energy   =      -0.00126763 Ry
     correction to one-el term =     -40.55436106 Ry

     WARNING: you are using the parabolic pbc correction;
              the potential shift above must be added to 
              band and Fermi energies.

     convergence has been achieved in  31 iterations
     The global environment contribution to forces
     atom    1 type  1   force =     0.00000000    0.00000000   -0.55921746
     atom    2 type  1   force =    -0.00000000   -0.00000000   -0.42915296
     atom    3 type  1   force =     0.00000000    0.00000000   -0.25709502
     atom    4 type  1   force =    -0.00000000   -0.00000000   -0.08561339
     atom    5 type  1   force =    -0.00000000   -0.00000000    0.08558075
     atom    6 type  1   force =     0.00000000    0.00000000    0.25706239
     atom    7 type  1   force =    -0.00000000   -0.00000000    0.42912027
     atom    8 type  1   force =    -0.00000000    0.00000000    0.55918523
 

     Forces acting on atoms (cartesian axes, Ry/au):

     atom    1 type  1   force =     0.00000000    0.00000000   -0.00263600
     atom    2 type  1   force =     0.00000000    0.00000000    0.00588990
     atom    3 type  1   force =     0.00000000    0.00000000   -0.00185830
     atom    4 type  1   force =     0.00000000    0.00000000    0.00112697
     atom    5 type  1   force =     0.00000000    0.00000000   -0.00112697
     atom    6 type  1   force =     0.00000000    0.00000000    0.00185830
     atom    7 type  1   force =     0.00000000    0.00000000   -0.00588990
     atom    8 type  1   force =     0.00000000    0.00000000    0.00263600
     The non-local contrib.  to forces
     atom    1 type  1   force =     0.00000000    0.00000000   -0.27998701
     atom    2 type  1   force =     0.00000000    0.00000000   -0.13858035
     atom    3 type  1   force =     0.00000000    0.00000000    0.06090199
     atom    4 type  1   force =     0.00000000    0.00000000    0.01257785
     atom    5 type  1   force =     0.00000000    0.00000000   -0.01257785
     atom    6 type  1   force =     0.00000000    0.00000000   -0.06090199
     atom    7 type  1   force =     0.00000000    0.00000000    0.13858035
     atom    8 type  1   force =     0.00000000    0.00000000    0.27998701
     The ionic contribution  to forces
     atom    1 type  1   force =    -0.00000000   -0.00000000 -239.27066695
     atom    2 type  1   force =     0.00000000    0.00000000 -172.16089446
     atom    3 type  1   force =    -0.00000000   -0.00000000 -103.18769899
     atom    4 type  1   force =     0.00000000    0.00000000  -34.40075385
     atom    5 type  1   force =    -0.00000000   -0.00000000   34.40075190
     atom    6 type  1   force =     0.00000000    0.00000000  103.18769910
     atom    7 type  1   force =    -0.00000000   -0.00000000  172.16089605
     atom    8 type  1   force =     0.00000000    0.00000000  239.27066722
     The local contribution  to forces
     atom    1 type  1   force =    -0.00000000   -0.00000000  240.10188292
     atom    2 type  1   force =     0.00000000    0.00000000  172.73734919
     atom    3 type  1   force =    -0.00000000   -0.00000000  103.38140716
     atom    4 type  1   force =     0.00000000    0.00000000   34.47442249
     atom    5 type  1   force =    -0.00000000   -0.00000000  -34.47442249
     atom    6 type  1   force =     0.00000000    0.00000000 -103.38140716
     atom    7 type  1   force =    -0.00000000   -0.00000000 -172.73729825
     atom    8 type  1   force =     0.00000000    0.00000000 -240.10188292
     The core correction contribution to forces
     atom    1 type  1   force =    -0.00000000   -0.00000000    0.00533065
     atom    2 type  1   force =     0.00000000    0.00000000   -0.00279482
     atom    3 type  1   force =    -0.00000000   -0.00000000    0.00055458
     atom    4 type  1   force =     0.00000000    0.00000000    0.00035576
     atom    5 type  1   force =    -0.00000000   -0.00000000   -0.00035576
     atom    6 type  1   force =     0.00000000    0.00000000   -0.00055458
     atom    7 type  1   force =    -0.00000000   -0.00000000    0.00279769
     atom    8 type  1   force =     0.00000000    0.00000000   -0.00533065
     The Hubbard contrib.    to forces
     atom    1 type  1   force =     0.00000000    0.00000000    0.00000000
     atom    2 type  1   force =     0.00000000    0.00000000    0.00000000
     atom    3 type  1   force =     0.00000000    0.00000000    0.00000000
     atom    4 type  1   force =     0.00000000    0.00000000    0.00000000
     atom    5 type  1   force =     0.00000000    0.00000000    0.00000000
     atom    6 type  1   force =     0.00000000    0.00000000    0.00000000
     atom    7 type  1   force =     0.00000000    0.00000000    0.00000000
     atom    8 type  1   force =     0.00000000    0.00000000    0.00000000
     The SCF correction term to forces
     atom    1 type  1   force =     0.00000000    0.00000000    0.00000587
     atom    2 type  1   force =     0.00000000    0.00000000   -0.00002535
     atom    3 type  1   force =     0.00000000   -0.00000000    0.00005572
     atom    4 type  1   force =    -0.00000000   -0.00000000    0.00012081
     atom    5 type  1   force =    -0.00000000   -0.00000000   -0.00012081
     atom    6 type  1   force =     0.00000000   -0.00000000   -0.00005572
     atom    7 type  1   force =     0.00000000    0.00000000    0.00002535
     atom    8 type  1   force =     0.00000000    0.00000000   -0.00000587

     Total force =     0.009629     Total SCF correction =     0.000192

     Writing output data file scf.save/
 
     init_run     :      1.46s CPU      1.56s WALL (       1 calls)
     electrons    :     55.82s CPU     59.45s WALL (       1 calls)
     forces       :      0.87s CPU      0.94s WALL (       1 calls)

     Called by init_run:
     wfcinit      :      0.23s CPU      0.24s WALL (       1 calls)
     wfcinit:atom :      0.00s CPU      0.00s WALL (       3 calls)
     wfcinit:wfcr :      0.21s CPU      0.21s WALL (       3 calls)
     potinit      :      0.28s CPU      0.29s WALL (       1 calls)
     hinit0       :      0.70s CPU      0.72s WALL (       1 calls)

     Called by electrons:
     c_bands      :     20.22s CPU     20.35s WALL (      31 calls)
     sum_band     :      8.45s CPU     10.08s WALL (      31 calls)
     v_of_rho     :      1.92s CPU      1.95s WALL (      32 calls)
     v_h          :      0.30s CPU      0.28s WALL (      84 calls)
     v_xc         :      1.86s CPU      1.89s WALL (      33 calls)
     newd         :      4.82s CPU      6.61s WALL (      32 calls)
     mix_rho      :      0.29s CPU      0.29s WALL (      31 calls)

     Called by c_bands:
     init_us_2    :      0.24s CPU      0.25s WALL (     192 calls)
     cegterg      :     18.29s CPU     18.40s WALL (      93 calls)

     Called by sum_band:
     sum_band:bec :      0.00s CPU      0.00s WALL (      93 calls)
     addusdens    :      5.74s CPU      7.34s WALL (      31 calls)

     Called by *egterg:
     h_psi        :     11.08s CPU     11.23s WALL (     467 calls)
     s_psi        :      1.22s CPU      1.21s WALL (     467 calls)
     g_psi        :      0.12s CPU      0.14s WALL (     371 calls)
     cdiaghg      :      1.98s CPU      1.97s WALL (     464 calls)
     cegterg:over :      1.48s CPU      1.51s WALL (     371 calls)
     cegterg:upda :      1.15s CPU      1.17s WALL (     371 calls)
     cegterg:last :      0.77s CPU      0.75s WALL (     119 calls)

     Called by h_psi:
     h_psi:pot    :     11.02s CPU     11.16s WALL (     467 calls)
     h_psi:calbec :      1.08s CPU      1.10s WALL (     467 calls)
     vloc_psi     :      8.76s CPU      8.86s WALL (     467 calls)
     add_vuspsi   :      1.18s CPU      1.19s WALL (     467 calls)

     General routines
     calbec       :      1.45s CPU      1.47s WALL (     572 calls)
     fft          :      8.83s CPU      8.86s WALL (    3459 calls)
     ffts         :      0.03s CPU      0.04s WALL (      63 calls)
     fftw         :      8.97s CPU      9.13s WALL (   34533 calls)
     interpolate  :      0.11s CPU      0.11s WALL (      32 calls)
 
     Parallel routines
     fft_scatt_xy :      2.46s CPU      2.45s WALL (   38055 calls)
     fft_scatt_yz :      5.71s CPU      5.74s WALL (   38055 calls)
 
     Environ routines
     calc_eelect  :      0.02s CPU      0.01s WALL (      62 calls)
     calc_velect  :     18.05s CPU     18.16s WALL (      52 calls)
     calc_vgcs    :      0.23s CPU      0.24s WALL (      26 calls)
     dielectric   :      0.14s CPU      0.15s WALL (      34 calls)
     electrolyte  :      0.01s CPU      0.00s WALL (       2 calls)
     calc_felect  :      0.02s CPU      0.02s WALL (       1 calls)
 
     PWSCF        :    58.99s CPU     1m 2.81s WALL

 
   This run was terminated on:  15:20:19  15Apr2019            

=------------------------------------------------------------------------------=
   JOB DONE.
=------------------------------------------------------------------------------=
