
     Program PWSCF v.6.7MaX starts on 25Sep2021 at 12: 3:36 

     This program is part of the open-source Quantum ESPRESSO suite
     for quantum simulation of materials; please cite
         "P. Giannozzi et al., J. Phys.:Condens. Matter 21 395502 (2009);
         "P. Giannozzi et al., J. Phys.:Condens. Matter 29 465901 (2017);
          URL http://www.quantum-espresso.org", 
     in publications or presentations arising from this work. More details at
     http://www.quantum-espresso.org/quote

     Parallel version (MPI), running on     8 processors

     MPI processes distributed on     1 nodes
     R & G space division:  proc/nbgrp/npool/nimage =       8
     Waiting for input...
     Reading input from standard input
Warning: card &CELL ignored
Warning: card / ignored

     Current dimensions of program PWSCF are:
     Max number of different atomic species (ntypx) = 10
     Max number of k-points (npk) =  40000
     Max angular momentum in pseudopotentials (lmaxx) =  3

     Reading input from environ.in

     ================================================================================

     Reading ENVIRON namelist

     Reading BOUNDARY namelist

     Checking boundary derivatives
     derivatives               = chain          ! SCCS default

     Reading ELECTROSTATIC namelist

     Setting up electrostatic problem
     problem                   = generalized    
     solver                    = fixed-point    ! gcs correction requires fixed-point solver
     auxiliary                 = full           

     Checking PBC correction

     ================================================================================
 

     Subspace diagonalization in iterative solution of the eigenvalue problem:
     a serial algorithm will be used

     Message from routine setup:
     using ibrav=0 with symmetry is DISCOURAGED, use correct ibrav instead
 
     Parallelization info
     --------------------
     sticks:   dense  smooth     PW     G-vecs:    dense   smooth      PW
     Min          92      36     12                34688     8766    1652
     Max          93      37     13                34713     8833    1693
     Sum         741     293     97               277595    70411   13373
 


     bravais-lattice index     =            0
     lattice parameter (alat)  =       5.5435  a.u.
     unit-cell volume          =    3161.5726 (a.u.)^3
     number of atoms/cell      =            8
     number of atomic types    =            1
     number of electrons       =        87.50
     number of Kohn-Sham states=           53
     kinetic-energy cutoff     =      30.0000  Ry
     charge density cutoff     =     300.0000  Ry
     scf convergence threshold =      5.0E-09
     mixing beta               =       0.7000
     number of iterations used =            8  plain     mixing
     Exchange-correlation= PBE
                           (   1   4   3   4   0   0   0)
 

     Environ Module
     ==============

     Please cite
         O. Andreussi, I. Dabo and N. Marzari, J. Chem. Phys. 136, 064102 (2012)         
     in publications or presentations arising from this work.

     compensation onset threshold      =               0.1000E+03
     static permittivity               =                    80.00
     epsilon calculation mode          =                     full

     Electrostatic Setup
     -------------------
     electrostatic problem to solve    = generalized             
     numerical solver adopted          = fixed-point             
     type of auxiliary density adopted = full                    
     type of core tool for poisson     = fft                     
     type of core tool for correction  = 1d-analytic             



     celldm(1)=   5.543526  celldm(2)=   0.000000  celldm(3)=   0.000000
     celldm(4)=   0.000000  celldm(5)=   0.000000  celldm(6)=   0.000000

     crystal axes: (cart. coord. in units of alat)
               a(1) = (   1.000000   0.000000   0.000000 )  
               a(2) = (   0.000000   1.000000   0.000000 )  
               a(3) = (   0.000000   0.000000  18.558586 )  

     reciprocal axes: (cart. coord. in units 2 pi/alat)
               b(1) = (  1.000000  0.000000  0.000000 )  
               b(2) = (  0.000000  1.000000  0.000000 )  
               b(3) = (  0.000000  0.000000  0.053883 )  


     PseudoPot. # 1 for Ag read from file:
     /home/simplogic86/Work/QE1/pseudo/Ag.pbe-n-rrkjus_psl.1.0.0.UPF
     MD5 check sum: d841cbfac2b0861aec33b46768a516bf
     Pseudo is Ultrasoft + core correction, Zval = 11.0
     Generated using &quot;atomic&quot; code by A. Dal Corso  v.6.2.2
     Using radial grid of 1237 points,  6 beta functions with: 
                l(1) =   0
                l(2) =   0
                l(3) =   1
                l(4) =   1
                l(5) =   2
                l(6) =   2
     Q(r) pseudized with 0 coefficients 


     atomic species   valence    mass     pseudopotential
        Ag            11.00   107.86820     Ag( 1.00)

     16 Sym. Ops., with inversion, found ( 8 have fractional translation)


                                    s                        frac. trans.

      isym =  1     identity                                     

 cryst.   s( 1) = (     1          0          0      )
                  (     0          1          0      )
                  (     0          0          1      )

 cart.    s( 1) = (  1.0000000  0.0000000  0.0000000 )
                  (  0.0000000  1.0000000  0.0000000 )
                  (  0.0000000  0.0000000  1.0000000 )


      isym =  2     180 deg rotation - cart. axis [0,0,1]        

 cryst.   s( 2) = (    -1          0          0      )
                  (     0         -1          0      )
                  (     0          0          1      )

 cart.    s( 2) = ( -1.0000000  0.0000000  0.0000000 )
                  (  0.0000000 -1.0000000  0.0000000 )
                  (  0.0000000  0.0000000  1.0000000 )


      isym =  3     180 deg rotation - cart. axis [0,1,0]        

 cryst.   s( 3) = (    -1          0          0      )    f =(  0.5000000 )
                  (     0          1          0      )       (  0.5000000 )
                  (     0          0         -1      )       ( -0.0000000 )

 cart.    s( 3) = ( -1.0000000  0.0000000  0.0000000 )    f =(  0.5000000 )
                  (  0.0000000  1.0000000  0.0000000 )       (  0.5000000 )
                  (  0.0000000  0.0000000 -1.0000000 )       ( -0.0000000 )


      isym =  4     180 deg rotation - cart. axis [1,0,0]        

 cryst.   s( 4) = (     1          0          0      )    f =(  0.5000000 )
                  (     0         -1          0      )       (  0.5000000 )
                  (     0          0         -1      )       ( -0.0000000 )

 cart.    s( 4) = (  1.0000000  0.0000000  0.0000000 )    f =(  0.5000000 )
                  (  0.0000000 -1.0000000  0.0000000 )       (  0.5000000 )
                  (  0.0000000  0.0000000 -1.0000000 )       ( -0.0000000 )


      isym =  5     180 deg rotation - cart. axis [1,1,0]        

 cryst.   s( 5) = (     0          1          0      )    f =(  0.5000000 )
                  (     1          0          0      )       (  0.5000000 )
                  (     0          0         -1      )       ( -0.0000000 )

 cart.    s( 5) = (  0.0000000  1.0000000  0.0000000 )    f =(  0.5000000 )
                  (  1.0000000  0.0000000  0.0000000 )       (  0.5000000 )
                  (  0.0000000  0.0000000 -1.0000000 )       ( -0.0000000 )


      isym =  6     180 deg rotation - cart. axis [1,-1,0]       

 cryst.   s( 6) = (     0         -1          0      )    f =(  0.5000000 )
                  (    -1          0          0      )       (  0.5000000 )
                  (     0          0         -1      )       ( -0.0000000 )

 cart.    s( 6) = (  0.0000000 -1.0000000  0.0000000 )    f =(  0.5000000 )
                  ( -1.0000000  0.0000000  0.0000000 )       (  0.5000000 )
                  (  0.0000000  0.0000000 -1.0000000 )       ( -0.0000000 )


      isym =  7      90 deg rotation - cart. axis [0,0,-1]       

 cryst.   s( 7) = (     0         -1          0      )
                  (     1          0          0      )
                  (     0          0          1      )

 cart.    s( 7) = (  0.0000000  1.0000000  0.0000000 )
                  ( -1.0000000  0.0000000  0.0000000 )
                  (  0.0000000  0.0000000  1.0000000 )


      isym =  8      90 deg rotation - cart. axis [0,0,1]        

 cryst.   s( 8) = (     0          1          0      )
                  (    -1          0          0      )
                  (     0          0          1      )

 cart.    s( 8) = (  0.0000000 -1.0000000  0.0000000 )
                  (  1.0000000  0.0000000  0.0000000 )
                  (  0.0000000  0.0000000  1.0000000 )


      isym =  9     inversion                                    

 cryst.   s( 9) = (    -1          0          0      )    f =(  0.5000000 )
                  (     0         -1          0      )       (  0.5000000 )
                  (     0          0         -1      )       ( -0.0000000 )

 cart.    s( 9) = ( -1.0000000  0.0000000  0.0000000 )    f =(  0.5000000 )
                  (  0.0000000 -1.0000000  0.0000000 )       (  0.5000000 )
                  (  0.0000000  0.0000000 -1.0000000 )       ( -0.0000000 )


      isym = 10     inv. 180 deg rotation - cart. axis [0,0,1]   

 cryst.   s(10) = (     1          0          0      )    f =(  0.5000000 )
                  (     0          1          0      )       (  0.5000000 )
                  (     0          0         -1      )       ( -0.0000000 )

 cart.    s(10) = (  1.0000000  0.0000000  0.0000000 )    f =(  0.5000000 )
                  (  0.0000000  1.0000000  0.0000000 )       (  0.5000000 )
                  (  0.0000000  0.0000000 -1.0000000 )       ( -0.0000000 )


      isym = 11     inv. 180 deg rotation - cart. axis [0,1,0]   

 cryst.   s(11) = (     1          0          0      )
                  (     0         -1          0      )
                  (     0          0          1      )

 cart.    s(11) = (  1.0000000  0.0000000  0.0000000 )
                  (  0.0000000 -1.0000000  0.0000000 )
                  (  0.0000000  0.0000000  1.0000000 )


      isym = 12     inv. 180 deg rotation - cart. axis [1,0,0]   

 cryst.   s(12) = (    -1          0          0      )
                  (     0          1          0      )
                  (     0          0          1      )

 cart.    s(12) = ( -1.0000000  0.0000000  0.0000000 )
                  (  0.0000000  1.0000000  0.0000000 )
                  (  0.0000000  0.0000000  1.0000000 )


      isym = 13     inv. 180 deg rotation - cart. axis [1,1,0]   

 cryst.   s(13) = (     0         -1          0      )
                  (    -1          0          0      )
                  (     0          0          1      )

 cart.    s(13) = (  0.0000000 -1.0000000  0.0000000 )
                  ( -1.0000000  0.0000000  0.0000000 )
                  (  0.0000000  0.0000000  1.0000000 )


      isym = 14     inv. 180 deg rotation - cart. axis [1,-1,0]  

 cryst.   s(14) = (     0          1          0      )
                  (     1          0          0      )
                  (     0          0          1      )

 cart.    s(14) = (  0.0000000  1.0000000  0.0000000 )
                  (  1.0000000  0.0000000  0.0000000 )
                  (  0.0000000  0.0000000  1.0000000 )


      isym = 15     inv.  90 deg rotation - cart. axis [0,0,-1]  

 cryst.   s(15) = (     0          1          0      )    f =(  0.5000000 )
                  (    -1          0          0      )       (  0.5000000 )
                  (     0          0         -1      )       ( -0.0000000 )

 cart.    s(15) = (  0.0000000 -1.0000000  0.0000000 )    f =(  0.5000000 )
                  (  1.0000000  0.0000000  0.0000000 )       (  0.5000000 )
                  (  0.0000000  0.0000000 -1.0000000 )       ( -0.0000000 )


      isym = 16     inv.  90 deg rotation - cart. axis [0,0,1]   

 cryst.   s(16) = (     0         -1          0      )    f =(  0.5000000 )
                  (     1          0          0      )       (  0.5000000 )
                  (     0          0         -1      )       ( -0.0000000 )

 cart.    s(16) = (  0.0000000  1.0000000  0.0000000 )    f =(  0.5000000 )
                  ( -1.0000000  0.0000000  0.0000000 )       (  0.5000000 )
                  (  0.0000000  0.0000000 -1.0000000 )       ( -0.0000000 )


   Cartesian axes

     site n.     atom                  positions (alat units)
         1           Ag  tau(   1) = (   0.5000000   0.5000000   6.8177767  )
         2           Ag  tau(   2) = (   0.0000000   0.0000000   7.5110323  )
         3           Ag  tau(   3) = (   0.5000000   0.5000000   8.2185960  )
         4           Ag  tau(   4) = (   0.0000000   0.0000000   8.9261320  )
         5           Ag  tau(   5) = (   0.5000000   0.5000000   9.6324544  )
         6           Ag  tau(   6) = (   0.0000000   0.0000000  10.3399904  )
         7           Ag  tau(   7) = (   0.5000000   0.5000000  11.0475540  )
         8           Ag  tau(   8) = (   0.0000000   0.0000000  11.7408097  )

   Crystallographic axes

     site n.     atom                  positions (cryst. coord.)
         1           Ag  tau(   1) = (  0.5000000  0.5000000  0.3673651  )
         2           Ag  tau(   2) = (  0.0000000  0.0000000  0.4047201  )
         3           Ag  tau(   3) = (  0.5000000  0.5000000  0.4428460  )
         4           Ag  tau(   4) = (  0.0000000  0.0000000  0.4809705  )
         5           Ag  tau(   5) = (  0.5000000  0.5000000  0.5190295  )
         6           Ag  tau(   6) = (  0.0000000  0.0000000  0.5571540  )
         7           Ag  tau(   7) = (  0.5000000  0.5000000  0.5952799  )
         8           Ag  tau(   8) = (  0.0000000  0.0000000  0.6326349  )

     number of k points=     3  Marzari-Vanderbilt smearing, width (Ry)=  0.0200
                       cart. coord. in units 2pi/alat
        k(    1) = (   0.0000000   0.0000000   0.0000000), wk =   0.5000000
        k(    2) = (   0.0000000  -0.5000000   0.0000000), wk =   1.0000000
        k(    3) = (  -0.5000000  -0.5000000   0.0000000), wk =   0.5000000

                       cryst. coord.
        k(    1) = (   0.0000000   0.0000000   0.0000000), wk =   0.5000000
        k(    2) = (   0.0000000  -0.5000000   0.0000000), wk =   1.0000000
        k(    3) = (  -0.5000000  -0.5000000   0.0000000), wk =   0.5000000

     Dense  grid:   277595 G-vectors     FFT dimensions: (  32,  32, 576)

     Smooth grid:    70411 G-vectors     FFT dimensions: (  20,  20, 360)

     Dynamical RAM for                 wfc:       0.89 MB

     Dynamical RAM for     wfc (w. buffer):       3.55 MB

     Dynamical RAM for           str. fact:       0.53 MB

     Dynamical RAM for           local pot:       0.00 MB

     Dynamical RAM for          nlocal pot:       2.41 MB

     Dynamical RAM for                qrad:       1.39 MB

     Dynamical RAM for          rho,v,vnew:       3.28 MB

     Dynamical RAM for               rhoin:       1.09 MB

     Dynamical RAM for            rho*nmix:       8.47 MB

     Dynamical RAM for           G-vectors:       2.05 MB

     Dynamical RAM for          h,s,v(r/c):       0.51 MB

     Dynamical RAM for          <psi|beta>:       0.12 MB

     Dynamical RAM for                 psi:       1.77 MB

     Dynamical RAM for                hpsi:       1.77 MB

     Dynamical RAM for                spsi:       1.77 MB

     Dynamical RAM for      wfcinit/wfcrot:       2.53 MB

     Dynamical RAM for           addusdens:     102.76 MB

     Dynamical RAM for          addusforce:     110.47 MB

     Estimated static dynamical RAM per process >      26.64 MB

     Estimated max dynamical RAM per process >     137.11 MB

     Estimated total dynamical RAM >       1.07 GB
Warning: wrong integral of erfc function


     Initial potential from superposition of free atoms

     starting charge   87.99681, renormalised to   87.50000

     negative rho (up, down):  3.125E-04 0.000E+00
     Starting wfcs are   72 randomized atomic wfcs

     total cpu time spent up to now is        2.1 secs

     Self-consistent Calculation

     iteration #  1     ecut=    30.00 Ry     beta= 0.70
     Davidson diagonalization with overlap
     ethr =  1.00E-02,  avg # of iterations =  5.7

     total cpu time spent up to now is        3.8 secs

     total energy              =    -543.73205955 Ry
     estimated scf accuracy    <     146.27981688 Ry
     electrostatic embedding   =       0.02186097 Ry
     electrolyte free energy   =       0.00062421 Ry
     correction to one-el term =       0.00000000 Ry

     iteration #  2     ecut=    30.00 Ry     beta= 0.70
     Davidson diagonalization with overlap
     ethr =  1.00E-02,  avg # of iterations = 31.0

     negative rho (up, down):  5.625E-06 0.000E+00

     total cpu time spent up to now is       18.8 secs

     total energy              =    -548.98998050 Ry
     estimated scf accuracy    <    9595.11030234 Ry
     electrostatic embedding   =       0.02186097 Ry
     electrolyte free energy   =       0.00062421 Ry
     correction to one-el term =       0.00000000 Ry

     iteration #  3     ecut=    30.00 Ry     beta= 0.70
     Davidson diagonalization with overlap
     ethr =  1.00E-02,  avg # of iterations = 18.3

     negative rho (up, down):  1.298E-04 0.000E+00

     total cpu time spent up to now is       31.4 secs

     total energy              =    -627.59674598 Ry
     estimated scf accuracy    <    3027.89295462 Ry
     electrostatic embedding   =       0.02186097 Ry
     electrolyte free energy   =       0.00062421 Ry
     correction to one-el term =       0.00000000 Ry

     iteration #  4     ecut=    30.00 Ry     beta= 0.70
     Davidson diagonalization with overlap
     c_bands:  1 eigenvalues not converged
     ethr =  1.00E-02,  avg # of iterations = 18.0

     negative rho (up, down):  3.525E-05 0.000E+00

     total cpu time spent up to now is       36.1 secs

     total energy              =    -666.36094165 Ry
     estimated scf accuracy    <     244.09044147 Ry
     electrostatic embedding   =       0.02186097 Ry
     electrolyte free energy   =       0.00062421 Ry
     correction to one-el term =       0.00000000 Ry

     iteration #  5     ecut=    30.00 Ry     beta= 0.70
     Davidson diagonalization with overlap
     ethr =  1.00E-02,  avg # of iterations =  8.7

     negative rho (up, down):  6.440E-06 0.000E+00

     add environment contribution to local potential

     total cpu time spent up to now is       47.3 secs

     total energy              =    -667.94279918 Ry
     estimated scf accuracy    <      85.83471228 Ry
     electrostatic embedding   =       0.02186097 Ry
     electrolyte free energy   =       0.00062421 Ry
     correction to one-el term =       0.00000000 Ry

     iteration #  6     ecut=    30.00 Ry     beta= 0.70
     Davidson diagonalization with overlap
     ethr =  1.00E-02,  avg # of iterations =  8.7

     negative rho (up, down):  6.937E-08 0.000E+00

     add environment contribution to local potential

     total cpu time spent up to now is       58.8 secs

     total energy              =    -672.40734767 Ry
     estimated scf accuracy    <       3.07680614 Ry
     electrostatic embedding   =      -0.17482730 Ry
     electrolyte free energy   =      -0.00157183 Ry
     correction to one-el term =     -25.23229144 Ry

     iteration #  7     ecut=    30.00 Ry     beta= 0.70
     Davidson diagonalization with overlap
     ethr =  3.52E-03,  avg # of iterations =  1.3

     negative rho (up, down):  1.579E-08 0.000E+00

     add environment contribution to local potential

     total cpu time spent up to now is       63.6 secs

     total energy              =    -672.26372265 Ry
     estimated scf accuracy    <       4.65689189 Ry
     electrostatic embedding   =      -0.22407521 Ry
     electrolyte free energy   =      -0.00222664 Ry
     correction to one-el term =     -25.04499557 Ry

     iteration #  8     ecut=    30.00 Ry     beta= 0.70
     Davidson diagonalization with overlap
     ethr =  3.52E-03,  avg # of iterations =  1.0

     add environment contribution to local potential

     total cpu time spent up to now is       69.4 secs

     total energy              =    -672.03350550 Ry
     estimated scf accuracy    <       3.66813543 Ry
     electrostatic embedding   =      -0.26228054 Ry
     electrolyte free energy   =      -0.00216797 Ry
     correction to one-el term =     -32.59060568 Ry

     iteration #  9     ecut=    30.00 Ry     beta= 0.70
     Davidson diagonalization with overlap
     ethr =  3.52E-03,  avg # of iterations =  1.7

     add environment contribution to local potential

     total cpu time spent up to now is       78.1 secs

     total energy              =    -671.86252661 Ry
     estimated scf accuracy    <       5.44779564 Ry
     electrostatic embedding   =      -0.32408375 Ry
     electrolyte free energy   =      -0.00189827 Ry
     correction to one-el term =     -47.33993670 Ry

     iteration # 10     ecut=    30.00 Ry     beta= 0.70
     Davidson diagonalization with overlap
     ethr =  3.52E-03,  avg # of iterations =  1.3

     negative rho (up, down):  1.712E-08 0.000E+00

     add environment contribution to local potential

     total cpu time spent up to now is       88.8 secs

     total energy              =    -671.65446898 Ry
     estimated scf accuracy    <       2.03735146 Ry
     electrostatic embedding   =      -0.31957644 Ry
     electrolyte free energy   =      -0.00149766 Ry
     correction to one-el term =     -54.57876984 Ry

     iteration # 11     ecut=    30.00 Ry     beta= 0.70
     Davidson diagonalization with overlap
     ethr =  2.33E-03,  avg # of iterations =  5.0

     negative rho (up, down):  3.170E-05 0.000E+00

     add environment contribution to local potential

     total cpu time spent up to now is       95.0 secs

     total energy              =    -673.52026770 Ry
     estimated scf accuracy    <       5.49374250 Ry
     electrostatic embedding   =      -0.31276481 Ry
     electrolyte free energy   =      -0.00127528 Ry
     correction to one-el term =     -65.33378203 Ry

     iteration # 12     ecut=    30.00 Ry     beta= 0.70
     Davidson diagonalization with overlap
     ethr =  2.33E-03,  avg # of iterations =  6.3

     negative rho (up, down):  5.005E-05 0.000E+00

     add environment contribution to local potential

     total cpu time spent up to now is      105.3 secs

     total energy              =    -673.44036028 Ry
     estimated scf accuracy    <       9.06495755 Ry
     electrostatic embedding   =      -0.13869972 Ry
     electrolyte free energy   =      -0.00126371 Ry
     correction to one-el term =     -47.26650010 Ry

     iteration # 13     ecut=    30.00 Ry     beta= 0.70
     Davidson diagonalization with overlap
     ethr =  2.33E-03,  avg # of iterations =  1.7

     negative rho (up, down):  6.842E-05 0.000E+00

     add environment contribution to local potential

     total cpu time spent up to now is      115.2 secs

     total energy              =    -673.43686921 Ry
     estimated scf accuracy    <       8.81822104 Ry
     electrostatic embedding   =      -0.09942147 Ry
     electrolyte free energy   =      -0.00126749 Ry
     correction to one-el term =     -39.20543216 Ry

     iteration # 14     ecut=    30.00 Ry     beta= 0.70
     Davidson diagonalization with overlap
     ethr =  2.33E-03,  avg # of iterations =  1.0

     negative rho (up, down):  8.672E-03 0.000E+00

     add environment contribution to local potential

     total cpu time spent up to now is      123.9 secs

     total energy              =    -673.41282644 Ry
     estimated scf accuracy    <       8.50202044 Ry
     electrostatic embedding   =      -0.08740688 Ry
     electrolyte free energy   =      -0.00126743 Ry
     correction to one-el term =     -36.93527626 Ry

     iteration # 15     ecut=    30.00 Ry     beta= 0.70
     Davidson diagonalization with overlap
     ethr =  2.33E-03,  avg # of iterations =  3.7

     negative rho (up, down):  5.628E-04 0.000E+00

     add environment contribution to local potential

     total cpu time spent up to now is      130.5 secs

     total energy              =    -673.42888963 Ry
     estimated scf accuracy    <       9.42101843 Ry
     electrostatic embedding   =      -0.05808962 Ry
     electrolyte free energy   =      -0.00126640 Ry
     correction to one-el term =     -31.57489805 Ry

     iteration # 16     ecut=    30.00 Ry     beta= 0.70
     Davidson diagonalization with overlap
     ethr =  2.33E-03,  avg # of iterations =  1.0

     negative rho (up, down):  1.364E-03 0.000E+00

     add environment contribution to local potential

     total cpu time spent up to now is      141.3 secs

     total energy              =    -673.44687689 Ry
     estimated scf accuracy    <       8.83674354 Ry
     electrostatic embedding   =      -0.07520183 Ry
     electrolyte free energy   =      -0.00126708 Ry
     correction to one-el term =     -34.59241479 Ry

     iteration # 17     ecut=    30.00 Ry     beta= 0.70
     Davidson diagonalization with overlap
     ethr =  2.33E-03,  avg # of iterations =  1.0

     negative rho (up, down):  4.787E-05 0.000E+00

     add environment contribution to local potential

     total cpu time spent up to now is      152.4 secs

     total energy              =    -673.38277771 Ry
     estimated scf accuracy    <       8.90107294 Ry
     electrostatic embedding   =      -0.07443280 Ry
     electrolyte free energy   =      -0.00126680 Ry
     correction to one-el term =     -34.54356476 Ry

     iteration # 18     ecut=    30.00 Ry     beta= 0.70
     Davidson diagonalization with overlap
     ethr =  2.33E-03,  avg # of iterations =  1.0

     negative rho (up, down):  5.114E-05 0.000E+00

     add environment contribution to local potential

     total cpu time spent up to now is      157.2 secs

     total energy              =    -673.34828368 Ry
     estimated scf accuracy    <       7.95194169 Ry
     electrostatic embedding   =      -0.08379979 Ry
     electrolyte free energy   =      -0.00126714 Ry
     correction to one-el term =     -35.78005773 Ry

     iteration # 19     ecut=    30.00 Ry     beta= 0.70
     Davidson diagonalization with overlap
     ethr =  2.33E-03,  avg # of iterations =  1.0

     negative rho (up, down):  4.281E-05 0.000E+00

     add environment contribution to local potential

     total cpu time spent up to now is      166.9 secs

     total energy              =    -671.83957563 Ry
     estimated scf accuracy    <       7.39409343 Ry
     electrostatic embedding   =      -0.08611224 Ry
     electrolyte free energy   =      -0.00126720 Ry
     correction to one-el term =     -36.28292618 Ry

     iteration # 20     ecut=    30.00 Ry     beta= 0.70
     Davidson diagonalization with overlap
     ethr =  2.33E-03,  avg # of iterations =  8.0

     negative rho (up, down):  5.105E-04 0.000E+00

     add environment contribution to local potential

     total cpu time spent up to now is      179.8 secs

     total energy              =    -672.01432323 Ry
     estimated scf accuracy    <      15.29012882 Ry
     electrostatic embedding   =      -0.18234705 Ry
     electrolyte free energy   =      -0.00126751 Ry
     correction to one-el term =     -55.40009601 Ry

     iteration # 21     ecut=    30.00 Ry     beta= 0.70
     Davidson diagonalization with overlap
     ethr =  2.33E-03,  avg # of iterations =  2.3

     negative rho (up, down):  1.848E-08 0.000E+00

     add environment contribution to local potential

     total cpu time spent up to now is      187.7 secs

     total energy              =    -672.64156166 Ry
     estimated scf accuracy    <       2.00532319 Ry
     electrostatic embedding   =      -0.07052215 Ry
     electrolyte free energy   =      -0.00126788 Ry
     correction to one-el term =     -32.90840491 Ry

     iteration # 22     ecut=    30.00 Ry     beta= 0.70
     Davidson diagonalization with overlap
     ethr =  2.29E-03,  avg # of iterations =  1.0

     negative rho (up, down):  6.478E-08 0.000E+00

     add environment contribution to local potential

     total cpu time spent up to now is      193.7 secs

     total energy              =    -672.68988139 Ry
     estimated scf accuracy    <       0.90048745 Ry
     electrostatic embedding   =      -0.09965572 Ry
     electrolyte free energy   =      -0.00126807 Ry
     correction to one-el term =     -39.00548937 Ry

     iteration # 23     ecut=    30.00 Ry     beta= 0.70
     Davidson diagonalization with overlap
     ethr =  1.03E-03,  avg # of iterations =  1.3

     add environment contribution to local potential

     total cpu time spent up to now is      204.2 secs

     total energy              =    -672.70980889 Ry
     estimated scf accuracy    <       0.11436133 Ry
     electrostatic embedding   =      -0.10308758 Ry
     electrolyte free energy   =      -0.00126809 Ry
     correction to one-el term =     -39.93822652 Ry

     iteration # 24     ecut=    30.00 Ry     beta= 0.70
     Davidson diagonalization with overlap
     c_bands:  1 eigenvalues not converged
     ethr =  1.31E-04,  avg # of iterations = 12.3

     add environment contribution to local potential

     total cpu time spent up to now is      217.2 secs

     total energy              =    -672.70615848 Ry
     estimated scf accuracy    <       0.29371073 Ry
     electrostatic embedding   =      -0.10363490 Ry
     electrolyte free energy   =      -0.00126803 Ry
     correction to one-el term =     -40.17925014 Ry

     iteration # 25     ecut=    30.00 Ry     beta= 0.70
     Davidson diagonalization with overlap
     ethr =  1.31E-04,  avg # of iterations =  1.0

     add environment contribution to local potential

     total cpu time spent up to now is      221.2 secs

     total energy              =    -672.70163604 Ry
     estimated scf accuracy    <       0.11444256 Ry
     electrostatic embedding   =      -0.10717271 Ry
     electrolyte free energy   =      -0.00126761 Ry
     correction to one-el term =     -41.06291175 Ry

     iteration # 26     ecut=    30.00 Ry     beta= 0.70
     Davidson diagonalization with overlap
     ethr =  1.31E-04,  avg # of iterations =  1.0

     add environment contribution to local potential

     total cpu time spent up to now is      231.4 secs

     total energy              =    -672.70260440 Ry
     estimated scf accuracy    <       0.47391965 Ry
     electrostatic embedding   =      -0.10904053 Ry
     electrolyte free energy   =      -0.00126765 Ry
     correction to one-el term =     -41.43827302 Ry

     iteration # 27     ecut=    30.00 Ry     beta= 0.70
     Davidson diagonalization with overlap
     ethr =  1.31E-04,  avg # of iterations =  1.0

     add environment contribution to local potential

     total cpu time spent up to now is      242.0 secs

     total energy              =    -672.70804562 Ry
     estimated scf accuracy    <       0.00071791 Ry
     electrostatic embedding   =      -0.10583073 Ry
     electrolyte free energy   =      -0.00126761 Ry
     correction to one-el term =     -40.78266277 Ry

     iteration # 28     ecut=    30.00 Ry     beta= 0.70
     Davidson diagonalization with overlap
     c_bands:  2 eigenvalues not converged
     ethr =  8.20E-07,  avg # of iterations = 11.3

     add environment contribution to local potential

     total cpu time spent up to now is      250.9 secs

     total energy              =    -672.70805003 Ry
     estimated scf accuracy    <       0.00321723 Ry
     electrostatic embedding   =      -0.10509847 Ry
     electrolyte free energy   =      -0.00126762 Ry
     correction to one-el term =     -40.61163643 Ry

     iteration # 29     ecut=    30.00 Ry     beta= 0.70
     Davidson diagonalization with overlap
     ethr =  8.20E-07,  avg # of iterations =  1.3

     add environment contribution to local potential

     total cpu time spent up to now is      255.8 secs

     total energy              =    -672.70812038 Ry
     estimated scf accuracy    <       0.00378470 Ry
     electrostatic embedding   =      -0.10538741 Ry
     electrolyte free energy   =      -0.00126759 Ry
     correction to one-el term =     -40.67506850 Ry

     iteration # 30     ecut=    30.00 Ry     beta= 0.70
     Davidson diagonalization with overlap
     ethr =  8.20E-07,  avg # of iterations =  1.0

     add environment contribution to local potential

     total cpu time spent up to now is      266.2 secs

     total energy              =    -672.70817116 Ry
     estimated scf accuracy    <       0.00004653 Ry
     electrostatic embedding   =      -0.10504880 Ry
     electrolyte free energy   =      -0.00126771 Ry
     correction to one-el term =     -40.59440531 Ry

     iteration # 31     ecut=    30.00 Ry     beta= 0.70
     Davidson diagonalization with overlap
     ethr =  5.32E-08,  avg # of iterations =  1.7

     add environment contribution to local potential

     total cpu time spent up to now is      275.7 secs

     total energy              =    -672.70817255 Ry
     estimated scf accuracy    <       0.00000113 Ry
     electrostatic embedding   =      -0.10503918 Ry
     electrolyte free energy   =      -0.00126768 Ry
     correction to one-el term =     -40.58689076 Ry

     iteration # 32     ecut=    30.00 Ry     beta= 0.70
     Davidson diagonalization with overlap
     c_bands:  1 eigenvalues not converged
     ethr =  1.29E-09,  avg # of iterations = 10.0

     add environment contribution to local potential

     total cpu time spent up to now is      282.3 secs

     total energy              =    -672.70817330 Ry
     estimated scf accuracy    <       0.00000012 Ry
     electrostatic embedding   =      -0.10499399 Ry
     electrolyte free energy   =      -0.00126762 Ry
     correction to one-el term =     -40.57340376 Ry

     iteration # 33     ecut=    30.00 Ry     beta= 0.70
     Davidson diagonalization with overlap
     ethr =  1.41E-10,  avg # of iterations =  2.7

     add environment contribution to local potential

     total cpu time spent up to now is      288.1 secs

     total energy              =    -672.70817332 Ry
     estimated scf accuracy    <       0.00000013 Ry
     electrostatic embedding   =      -0.10497766 Ry
     electrolyte free energy   =      -0.00126764 Ry
     correction to one-el term =     -40.56607207 Ry

     iteration # 34     ecut=    30.00 Ry     beta= 0.70
     Davidson diagonalization with overlap
     ethr =  1.41E-10,  avg # of iterations =  2.7

     add environment contribution to local potential

     total cpu time spent up to now is      298.3 secs

     total energy              =    -672.70817345 Ry
     estimated scf accuracy    <       0.00000005 Ry
     electrostatic embedding   =      -0.10496882 Ry
     electrolyte free energy   =      -0.00126762 Ry
     correction to one-el term =     -40.56089343 Ry

     iteration # 35     ecut=    30.00 Ry     beta= 0.70
     Davidson diagonalization with overlap
     ethr =  5.42E-11,  avg # of iterations =  3.0

     the potential shift due to the Gaussian-smeared nuclei is    -0.5949 ev

     total cpu time spent up to now is      307.5 secs

     End of self-consistent calculation

          k = 0.0000 0.0000 0.0000 (  8687 PWs)   bands (ev):

   -11.8340 -11.5207 -11.0381 -10.6005 -10.5171 -10.5145 -10.4993 -10.4208
   -10.3017 -10.2567 -10.1508  -9.9918  -9.7918  -9.5652  -9.2758  -9.0785
    -9.0532  -9.0532  -9.0110  -9.0110  -8.7714  -8.7714  -8.4818  -8.3971
    -8.3898  -8.3898  -8.2563  -8.2545  -8.1947  -8.1122  -8.0751  -8.0751
    -7.9926  -7.8692  -7.7838  -7.7838  -7.7827  -7.6155  -7.5096  -7.4244
    -7.4244  -7.4202  -7.3367  -7.1922  -7.1922  -6.1985  -4.6152  -2.8741
    -2.3608   0.0563   0.0681   0.3567   0.4784

     occupation numbers 
     1.0000   1.0000   1.0000   1.0000   1.0000   1.0000   1.0000   1.0000
     1.0000   1.0000   1.0000   1.0000   1.0000   1.0000   1.0000   1.0000
     1.0000   1.0000   1.0000   1.0000   1.0000   1.0000   1.0000   1.0000
     1.0000   1.0000   1.0000   1.0000   1.0000   1.0000   1.0000   1.0000
     1.0000   1.0000   1.0000   1.0000   1.0000   1.0000   1.0000   1.0000
     1.0000   1.0000   1.0000   1.0000   1.0000   1.0000   0.0578   0.0000
     0.0000   0.0000   0.0000   0.0000   0.0000

          k = 0.0000-0.5000 0.0000 (  8814 PWs)   bands (ev):

   -10.5293 -10.5292 -10.4336 -10.4336 -10.1702 -10.1702  -9.7753  -9.7752
    -9.3728  -9.3727  -9.3301  -9.3301  -9.1459  -9.1459  -9.1437  -9.1436
    -9.0383  -9.0382  -9.0292  -9.0291  -8.8225  -8.8225  -8.7817  -8.7817
    -8.5304  -8.5304  -8.3764  -8.3764  -8.0625  -8.0625  -7.8909  -7.8909
    -7.8763  -7.8763  -7.5680  -7.5680  -7.4513  -7.4513  -7.3467  -7.3467
    -5.0397  -5.0396  -4.9716  -4.9716  -4.8721  -4.8720  -4.5610  -4.5609
    -1.5577  -1.5576  -0.3400  -0.3400   1.0466

     occupation numbers 
     1.0000   1.0000   1.0000   1.0000   1.0000   1.0000   1.0000   1.0000
     1.0000   1.0000   1.0000   1.0000   1.0000   1.0000   1.0000   1.0000
     1.0000   1.0000   1.0000   1.0000   1.0000   1.0000   1.0000   1.0000
     1.0000   1.0000   1.0000   1.0000   1.0000   1.0000   1.0000   1.0000
     1.0000   1.0000   1.0000   1.0000   1.0000   1.0000   1.0000   1.0000
     0.9279   0.9278   0.7743   0.7742   0.5038   0.5038   0.0297   0.0296
     0.0000   0.0000   0.0000   0.0000   0.0000

          k =-0.5000-0.5000 0.0000 (  8868 PWs)   bands (ev):

   -10.5815 -10.5815 -10.4609 -10.4609 -10.4060 -10.4060 -10.3135 -10.3135
   -10.2119 -10.2118 -10.0334 -10.0334  -9.9209  -9.9208  -9.5184  -9.5184
    -8.9689  -8.9689  -8.4350  -8.4350  -8.0674  -8.0673  -7.9679  -7.9679
    -7.8306  -7.8306  -7.6420  -7.6420  -7.5502  -7.5501  -7.3854  -7.3854
    -7.3269  -7.3269  -7.3026  -7.3025  -7.1267  -7.1266  -7.0292  -7.0291
    -2.5981  -2.5981  -1.9324  -1.9324  -0.9297  -0.9297   0.3665   0.3665
     1.7910   1.7910   1.8968   1.8971   1.9747

     occupation numbers 
     1.0000   1.0000   1.0000   1.0000   1.0000   1.0000   1.0000   1.0000
     1.0000   1.0000   1.0000   1.0000   1.0000   1.0000   1.0000   1.0000
     1.0000   1.0000   1.0000   1.0000   1.0000   1.0000   1.0000   1.0000
     1.0000   1.0000   1.0000   1.0000   1.0000   1.0000   1.0000   1.0000
     1.0000   1.0000   1.0000   1.0000   1.0000   1.0000   1.0000   1.0000
     0.0000   0.0000   0.0000   0.0000   0.0000   0.0000   0.0000   0.0000
     0.0000   0.0000   0.0000   0.0000   0.0000

     the Fermi energy is    -4.8327 ev

!    total energy              =    -672.70817353 Ry
     estimated scf accuracy    <          4.9E-09 Ry
     smearing contrib. (-TS)   =      -0.01081739 Ry
     internal energy E=F+TS    =    -672.69735614 Ry

     The total energy is F=E-TS. E is the sum of the following terms:
     one-electron contribution =  -26354.48594530 Ry
     hartree contribution      =   13220.01799028 Ry
     xc contribution           =    -178.44522772 Ry
     ewald contribution        =   12680.87942749 Ry
     electrostatic embedding   =      -0.10496272 Ry
     electrolyte free energy   =      -0.00126760 Ry
     correction to one-el term =     -40.55737056 Ry

     WARNING: you are using the parabolic pbc correction;
              the potential shift above must be added to 
              band and Fermi energies.

     convergence has been achieved in  35 iterations
     The global environment contribution to forces
     atom    1 type  1   force =    -0.00000000   -0.00000000   -0.55912439
     atom    2 type  1   force =     0.00000000    0.00000000   -0.42915452
     atom    3 type  1   force =    -0.00000000   -0.00000000   -0.25709500
     atom    4 type  1   force =     0.00000000    0.00000000   -0.08561339
     atom    5 type  1   force =    -0.00000000   -0.00000000    0.08558075
     atom    6 type  1   force =     0.00000000   -0.00000000    0.25706236
     atom    7 type  1   force =    -0.00000000    0.00000000    0.42912184
     atom    8 type  1   force =     0.00000000    0.00000000    0.55909217
 

     Forces acting on atoms (cartesian axes, Ry/au):

     atom    1 type  1   force =     0.00000000    0.00000000   -0.00265400
     atom    2 type  1   force =     0.00000000    0.00000000    0.00592964
     atom    3 type  1   force =     0.00000000    0.00000000   -0.00184269
     atom    4 type  1   force =     0.00000000    0.00000000    0.00110162
     atom    5 type  1   force =     0.00000000    0.00000000   -0.00110162
     atom    6 type  1   force =     0.00000000    0.00000000    0.00184269
     atom    7 type  1   force =     0.00000000    0.00000000   -0.00592964
     atom    8 type  1   force =     0.00000000    0.00000000    0.00265400
     The non-local contrib.  to forces
     atom    1 type  1   force =     0.00000000    0.00000000   -0.28002158
     atom    2 type  1   force =     0.00000000    0.00000000   -0.13855702
     atom    3 type  1   force =     0.00000000    0.00000000    0.06092025
     atom    4 type  1   force =     0.00000000    0.00000000    0.01256061
     atom    5 type  1   force =     0.00000000    0.00000000   -0.01256061
     atom    6 type  1   force =     0.00000000    0.00000000   -0.06092025
     atom    7 type  1   force =     0.00000000    0.00000000    0.13855702
     atom    8 type  1   force =     0.00000000    0.00000000    0.28002158
     The ionic contribution  to forces
     atom    1 type  1   force =    -0.00000000   -0.00000000 -239.27066904
     atom    2 type  1   force =     0.00000000    0.00000000 -172.16089596
     atom    3 type  1   force =    -0.00000000   -0.00000000 -103.18769990
     atom    4 type  1   force =     0.00000000    0.00000000  -34.40075415
     atom    5 type  1   force =    -0.00000000   -0.00000000   34.40075220
     atom    6 type  1   force =     0.00000000    0.00000000  103.18770000
     atom    7 type  1   force =    -0.00000000   -0.00000000  172.16089755
     atom    8 type  1   force =     0.00000000    0.00000000  239.27066931
     The local contribution  to forces
     atom    1 type  1   force =    -0.00000000   -0.00000000  240.10186143
     atom    2 type  1   force =     0.00000000    0.00000000  172.73712637
     atom    3 type  1   force =    -0.00000000   -0.00000000  103.38130289
     atom    4 type  1   force =     0.00000000    0.00000000   34.47457459
     atom    5 type  1   force =    -0.00000000   -0.00000000  -34.47457459
     atom    6 type  1   force =     0.00000000    0.00000000 -103.38130289
     atom    7 type  1   force =    -0.00000000   -0.00000000 -172.73707543
     atom    8 type  1   force =     0.00000000    0.00000000 -240.10186143
     The core correction contribution to forces
     atom    1 type  1   force =    -0.00000000   -0.00000000    0.00533104
     atom    2 type  1   force =     0.00000000    0.00000000   -0.00279664
     atom    3 type  1   force =    -0.00000000   -0.00000000    0.00055403
     atom    4 type  1   force =     0.00000000    0.00000000    0.00035775
     atom    5 type  1   force =    -0.00000000   -0.00000000   -0.00035775
     atom    6 type  1   force =     0.00000000    0.00000000   -0.00055403
     atom    7 type  1   force =    -0.00000000   -0.00000000    0.00279951
     atom    8 type  1   force =     0.00000000    0.00000000   -0.00533104
     The Hubbard contrib.    to forces
     atom    1 type  1   force =     0.00000000    0.00000000    0.00000000
     atom    2 type  1   force =     0.00000000    0.00000000    0.00000000
     atom    3 type  1   force =     0.00000000    0.00000000    0.00000000
     atom    4 type  1   force =     0.00000000    0.00000000    0.00000000
     atom    5 type  1   force =     0.00000000    0.00000000    0.00000000
     atom    6 type  1   force =     0.00000000    0.00000000    0.00000000
     atom    7 type  1   force =     0.00000000    0.00000000    0.00000000
     atom    8 type  1   force =     0.00000000    0.00000000    0.00000000
     The SCF correction term to forces
     atom    1 type  1   force =     0.00000000    0.00000000   -0.00004743
     atom    2 type  1   force =     0.00000000    0.00000000    0.00021878
     atom    3 type  1   force =     0.00000000   -0.00000000    0.00015877
     atom    4 type  1   force =    -0.00000000   -0.00000000   -0.00004108
     atom    5 type  1   force =    -0.00000000   -0.00000000    0.00004108
     atom    6 type  1   force =     0.00000000    0.00000000   -0.00015877
     atom    7 type  1   force =     0.00000000    0.00000000   -0.00021878
     atom    8 type  1   force =     0.00000000    0.00000000    0.00004743

     Total force =     0.009676     Total SCF correction =     0.000392

     Writing output data file /home/simplogic86/Work/QE1/tempdir/scf.save/
 
     init_run     :      1.68s CPU      1.93s WALL (       1 calls)
     electrons    :    227.35s CPU    305.69s WALL (       1 calls)
     forces       :      2.42s CPU      2.68s WALL (       1 calls)

     Called by init_run:
     wfcinit      :      0.39s CPU      0.48s WALL (       1 calls)
     wfcinit:atom :      0.00s CPU      0.00s WALL (       3 calls)
     wfcinit:wfcr :      0.37s CPU      0.46s WALL (       3 calls)
     potinit      :      0.36s CPU      0.38s WALL (       1 calls)
     hinit0       :      0.61s CPU      0.66s WALL (       1 calls)

     Called by electrons:
     c_bands      :     95.58s CPU    136.95s WALL (      35 calls)
     sum_band     :     26.23s CPU     39.77s WALL (      35 calls)
     v_of_rho     :      6.82s CPU      9.95s WALL (      36 calls)
     v_h          :      0.57s CPU      0.70s WALL (      36 calls)
     v_xc         :      6.45s CPU      9.49s WALL (      37 calls)
     newd         :     12.12s CPU     17.14s WALL (      36 calls)
     mix_rho      :      4.46s CPU      5.70s WALL (      35 calls)

     Called by c_bands:
     init_us_2    :      0.31s CPU      0.34s WALL (     216 calls)
     cegterg      :     92.37s CPU    132.41s WALL (     108 calls)

     Called by sum_band:
     sum_band:wei :      0.01s CPU      0.01s WALL (      35 calls)
     sum_band:loo :     12.64s CPU     18.72s WALL (      35 calls)
     sum_band:buf :      0.07s CPU      0.07s WALL (     105 calls)
     sum_band:ini :      0.16s CPU      0.18s WALL (     105 calls)
     sum_band:cal :      1.08s CPU      1.31s WALL (     105 calls)
     sum_band:bec :      0.01s CPU      0.01s WALL (     105 calls)
     addusdens    :      9.09s CPU     11.30s WALL (      35 calls)
     addusd:skk   :      0.07s CPU      0.07s WALL (      35 calls)
     addusd:dgemm :      1.84s CPU      3.84s WALL (      35 calls)
     addusd:qvan2 :      6.80s CPU      6.98s WALL (      35 calls)

     Called by *egterg:
     cdiaghg      :      4.60s CPU      4.83s WALL (     645 calls)
     cegterg:over :      7.09s CPU      8.47s WALL (     537 calls)
     cegterg:upda :      0.91s CPU      0.95s WALL (     537 calls)
     cegterg:last :      2.07s CPU      2.11s WALL (     308 calls)
     h_psi        :     71.78s CPU    109.48s WALL (     648 calls)
     s_psi        :      1.69s CPU      1.75s WALL (     648 calls)
     g_psi        :      0.07s CPU      0.07s WALL (     537 calls)

     Called by h_psi:
     h_psi:calbec :      4.81s CPU      5.91s WALL (     648 calls)
     vloc_psi     :     65.13s CPU    101.62s WALL (     648 calls)
     add_vuspsi   :      1.70s CPU      1.81s WALL (     648 calls)

     General routines
     calbec       :      6.05s CPU      7.40s WALL (     765 calls)
     fft          :      6.32s CPU      9.34s WALL (     477 calls)
     ffts         :      0.20s CPU      0.30s WALL (      71 calls)
     fftw         :     74.57s CPU    116.42s WALL (   42931 calls)
     interpolate  :      0.45s CPU      0.59s WALL (      36 calls)
 
     Parallel routines
     fft_scatt_xy :      1.91s CPU      2.65s WALL (   43479 calls)
     fft_scatt_yz :     68.03s CPU    109.50s WALL (   43479 calls)
 
     Environ routines
 
     PWSCF        :   3m52.33s CPU   5m12.23s WALL

 
   This run was terminated on:  12: 8:49  25Sep2021            

=------------------------------------------------------------------------------=
   JOB DONE.
=------------------------------------------------------------------------------=
