
     Program PWSCF v.5.2.0 (svn rev. 11610M) starts on  8Jul2015 at 17:46:14 

     This program is part of the open-source Quantum ESPRESSO suite
     for quantum simulation of materials; please cite
         "P. Giannozzi et al., J. Phys.:Condens. Matter 21 395502 (2009);
          URL http://www.quantum-espresso.org", 
     in publications or presentations arising from this work. More details at
     http://www.quantum-espresso.org/quote

     Parallel version (MPI), running on     2 processors
     R & G space division:  proc/nbgrp/npool/nimage =       2
     Waiting for input...
     Reading input from standard input
Warning: card  &IONS ignored
Warning: card    ION_DYNAMICS    = 'BFGS' ignored
Warning: card  / ignored

     Current dimensions of program PWSCF are:
     Max number of different atomic species (ntypx) = 10
     Max number of k-points (npk) =  40000
     Max angular momentum in pseudopotentials (lmaxx) =  3
               file C.pbe-rrkjus.UPF: wavefunction(s)  2S 2P renormalized
               file O.pbe-rrkjus.UPF: wavefunction(s)  2S renormalized

     Subspace diagonalization in iterative solution of the eigenvalue problem:
     a serial algorithm will be used

 
     Parallelization info
     --------------------
     sticks:   dense  smooth     PW     G-vecs:    dense   smooth      PW
     Min        1102     549    134               165453    58471    7284
     Max        1103     550    135               165456    58494    7287
     Sum        2205    1099    269               330909   116965   14571
 


     bravais-lattice index     =            8
     lattice parameter (alat)  =      10.6881  a.u.
     unit-cell volume          =    4181.1215 (a.u.)^3
     number of atoms/cell      =           10
     number of atomic types    =            3
     number of electrons       =        89.00
     number of Kohn-Sham states=           80
     kinetic-energy cutoff     =      35.0000  Ry
     charge density cutoff     =     280.0000  Ry
     convergence threshold     =      5.0E-09
     mixing beta               =       0.2000
     number of iterations used =            8  plain     mixing
     Exchange-correlation      =  SLA  PW   PBE  PBE ( 1  4  3  4 0 0)
 

     Environ Module
     ==============

     Please cite
         "O. Andreussi, I. Dabo and N. Marzari, J. Chem. Phys. 136, 064102 (2012);"
     in publications or presentations arising from this work.

     compensation onset threshold      =               0.1000E+01 
     switching function adopted        =                     SCCS 
     density limit for vacuum region   =               0.5000E-02 
     density limit for bulk solvent    =               0.1000E-03 
     static permittivity               =                    80.00 
     epsilon calculation mode          =                     full 
     type of numerical differentiator  =            central diff. 
     number of points in num. diff.    =                        2 
     required accuracy                 =               0.5000E-12 
     linear mixing parameter           =                     0.60 
     correction slab geom. along axis  =                        3 
     number of external charged items  =                        2 
 

     celldm(1)=  10.688100  celldm(2)=   0.866025  celldm(3)=   3.954220
     celldm(4)=   0.000000  celldm(5)=   0.000000  celldm(6)=   0.000000

     crystal axes: (cart. coord. in units of alat)
               a(1) = (   1.000000   0.000000   0.000000 )  
               a(2) = (   0.000000   0.866025   0.000000 )  
               a(3) = (   0.000000   0.000000   3.954220 )  

     reciprocal axes: (cart. coord. in units 2 pi/alat)
               b(1) = (  1.000000  0.000000  0.000000 )  
               b(2) = (  0.000000  1.154701  0.000000 )  
               b(3) = (  0.000000  0.000000  0.252894 )  


     PseudoPot. # 1 for C  read from file:
     /home/andreussi/PWSCF/espresso/pseudo/C.pbe-rrkjus.UPF
     MD5 check sum: 00fb224312de0c5b6853bd333518df6f
     Pseudo is Ultrasoft, Zval =  4.0
     Generated by new atomic code, or converted to UPF format
     Using radial grid of  627 points,  4 beta functions with: 
                l(1) =   0
                l(2) =   0
                l(3) =   1
                l(4) =   1
     Q(r) pseudized with 0 coefficients 


     PseudoPot. # 2 for O  read from file:
     /home/andreussi/PWSCF/espresso/pseudo/O.pbe-rrkjus.UPF
     MD5 check sum: 390ba29e75625707450f3bd3f0eb6be9
     Pseudo is Ultrasoft, Zval =  6.0
     Generated by new atomic code, or converted to UPF format
     Using radial grid of 1269 points,  4 beta functions with: 
                l(1) =   0
                l(2) =   0
                l(3) =   1
                l(4) =   1
     Q(r) pseudized with 0 coefficients 


     PseudoPot. # 3 for Pt read from file:
     /home/andreussi/PWSCF/espresso/pseudo/Pt.pbe-nd-rrkjus.UPF
     MD5 check sum: 1413c21c79e416b56dc03f2d0e22670c
     Pseudo is Ultrasoft + core correction, Zval = 10.0
     Generated by new atomic code, or converted to UPF format
     Using radial grid of 1547 points,  3 beta functions with: 
                l(1) =   1
                l(2) =   2
                l(3) =   2
     Q(r) pseudized with 0 coefficients 


     atomic species   valence    mass     pseudopotential
        C              4.00     1.00000     C ( 1.00)
        O              6.00     1.00000     O ( 1.00)
        Pt            10.00     1.00000     Pt( 1.00)

     No symmetry found


                                    s                        frac. trans.

      isym =  1     identity                                     

 cryst.   s( 1) = (     1          0          0      )
                  (     0          1          0      )
                  (     0          0          1      )

 cart.    s( 1) = (  1.0000000  0.0000000  0.0000000 )
                  (  0.0000000  1.0000000  0.0000000 )
                  (  0.0000000  0.0000000  1.0000000 )


     point group C_1 (1)    
     there are  1 classes
     the character table:

       E    
A      1.00

     the symmetry operations in each class and the name of the first element:

     E        1
          identity                                               

   Cartesian axes

     site n.     atom                  positions (alat units)
         1           C   tau(   1) = (   0.4991611   0.4347567   1.2070461  )
         2           O   tau(   2) = (   0.4991542   0.4322212   1.4109013  )
         3           Pt  tau(   3) = (   0.7542339   0.0091745   0.8413229  )
         4           Pt  tau(   4) = (   0.2441023   0.0091745   0.8413226  )
         5           Pt  tau(   5) = (   0.0000034   0.4416918   0.8391348  )
         6           Pt  tau(   6) = (   0.4991682   0.4417635   0.8776299  )
         7           Pt  tau(   7) = (   0.0000038   0.7300598   0.4308181  )
         8           Pt  tau(   8) = (   0.4991683   0.7202168   0.4447460  )
         9           Pt  tau(   9) = (   0.2524172   0.2949237   0.4386572  )
        10           Pt  tau(  10) = (   0.7459196   0.2949237   0.4386575  )

   Crystallographic axes

     site n.     atom                  positions (cryst. coord.)
         1           C   tau(   1) = (  0.4991611  0.5020141  0.3052552  )
         2           O   tau(   2) = (  0.4991542  0.4990863  0.3568090  )
         3           Pt  tau(   3) = (  0.7542339  0.0105938  0.2127658  )
         4           Pt  tau(   4) = (  0.2441023  0.0105938  0.2127658  )
         5           Pt  tau(   5) = (  0.0000034  0.5100220  0.2122125  )
         6           Pt  tau(   6) = (  0.4991682  0.5101048  0.2219477  )
         7           Pt  tau(   7) = (  0.0000038  0.8430008  0.1089515  )
         8           Pt  tau(   8) = (  0.4991683  0.8316351  0.1124738  )
         9           Pt  tau(   9) = (  0.2524172  0.3405487  0.1109339  )
        10           Pt  tau(  10) = (  0.7459196  0.3405488  0.1109340  )

     number of k points=     1  Marzari-Vanderbilt smearing, width (Ry)=  0.0300
                       cart. coord. in units 2pi/alat
        k(    1) = (   0.0000000   0.0000000   0.0000000), wk =   2.0000000

                       cryst. coord.
        k(    1) = (   0.0000000   0.0000000   0.0000000), wk =   2.0000000

     Dense  grid:   330909 G-vectors     FFT dimensions: (  60,  50, 225)

     Smooth grid:   116965 G-vectors     FFT dimensions: (  45,  36, 160)

     Largest allocated arrays     est. size (Mb)     dimensions
        Kohn-Sham Wavefunctions         8.89 Mb     (    7284,   80)
        NL pseudopotentials            13.34 Mb     (    7284,  120)
        Each V/rho on FFT grid          5.17 Mb     (  339000)
        Each G-vector array             1.26 Mb     (  165456)
        G-vector shells                 0.32 Mb     (   42597)
     Largest temporary arrays     est. size (Mb)     dimensions
        Auxiliary wavefunctions        35.57 Mb     (    7284,  320)
        Each subspace H/S matrix        1.56 Mb     (     320,  320)
        Each <psi_i|beta_j> matrix      0.15 Mb     (     120,   80)
        Arrays for rho mixing          41.38 Mb     (  339000,    8)

     Check: negative/imaginary core charge=   -0.000038    0.000000

     Initial potential from superposition of free atoms

     starting charge   89.99875, renormalised to   89.00000

     negative rho (up, down):  7.106E-05 0.000E+00
     Starting wfc are   56 randomized atomic wfcs +   24 random wfc

     total cpu time spent up to now is       10.1 secs

     per-process dynamical memory:   152.4 Mb

     Self-consistent Calculation

     iteration #  1     ecut=    35.00 Ry     beta=0.20
     Davidson diagonalization with overlap
     ethr =  1.00E-02,  avg # of iterations =  6.0

     negative rho (up, down):  7.712E-05 0.000E+00

     total cpu time spent up to now is       18.8 secs

     total energy              =    -735.20636345 Ry
     Harris-Foulkes estimate   =    -735.95159606 Ry
     estimated scf accuracy    <       2.31944252 Ry
     solvation energy          =       0.00000000 Ry
     periodic energy correct.  =       0.00000000 Ry
     external charges energy   =       0.00000000 Ry

     iteration #  2     ecut=    35.00 Ry     beta=0.20
     Davidson diagonalization with overlap
     ethr =  2.61E-03,  avg # of iterations =  4.0

     negative rho (up, down):  1.371E-04 0.000E+00

     total cpu time spent up to now is       24.7 secs

     total energy              =    -734.92186323 Ry
     Harris-Foulkes estimate   =    -736.43423530 Ry
     estimated scf accuracy    <      17.12033846 Ry
     solvation energy          =       0.00000000 Ry
     periodic energy correct.  =       0.00000000 Ry
     external charges energy   =       0.00000000 Ry

     iteration #  3     ecut=    35.00 Ry     beta=0.20
     Davidson diagonalization with overlap
     ethr =  2.61E-03,  avg # of iterations =  2.0

     negative rho (up, down):  1.083E-04 0.000E+00

     add environment contribution to local potential
     polarization accuracy = 4.9E-13, # of iterations =  52

     total cpu time spent up to now is       38.2 secs

     total energy              =    -735.56660161 Ry
     Harris-Foulkes estimate   =    -735.65116654 Ry
     estimated scf accuracy    <       0.52386981 Ry
     solvation energy          =       0.00000000 Ry
     periodic energy correct.  =       0.00000000 Ry
     external charges energy   =       0.00000000 Ry

     iteration #  4     ecut=    35.00 Ry     beta=0.20
     Davidson diagonalization with overlap
     ethr =  5.89E-04,  avg # of iterations =  8.0

     negative rho (up, down):  1.081E-04 0.000E+00

     add environment contribution to local potential
     polarization accuracy = 4.4E-13, # of iterations =  46

     total cpu time spent up to now is       53.0 secs

     total energy              =    -735.34873670 Ry
     Harris-Foulkes estimate   =    -753.93217540 Ry
     estimated scf accuracy    <       0.37097765 Ry
     solvation energy          =      -0.70330059 Ry
     periodic energy correct.  =      -0.00006598 Ry
     external charges energy   =       0.91932167 Ry

     iteration #  5     ecut=    35.00 Ry     beta=0.20
     Davidson diagonalization with overlap
     ethr =  4.17E-04,  avg # of iterations =  3.0

     negative rho (up, down):  1.169E-04 0.000E+00

     add environment contribution to local potential
     polarization accuracy = 4.7E-13, # of iterations =  45

     total cpu time spent up to now is       65.7 secs

     total energy              =    -735.35802619 Ry
     Harris-Foulkes estimate   =    -752.10212769 Ry
     estimated scf accuracy    <       0.08435873 Ry
     solvation energy          =      -0.70813518 Ry
     periodic energy correct.  =       0.00008437 Ry
     external charges energy   =       0.91497380 Ry

     iteration #  6     ecut=    35.00 Ry     beta=0.20
     Davidson diagonalization with overlap
     ethr =  9.48E-05,  avg # of iterations =  6.0

     negative rho (up, down):  1.589E-04 0.000E+00

     add environment contribution to local potential
     polarization accuracy = 3.9E-13, # of iterations =  49

     total cpu time spent up to now is       79.4 secs

     total energy              =    -735.35134446 Ry
     Harris-Foulkes estimate   =    -751.19260962 Ry
     estimated scf accuracy    <       0.02894859 Ry
     solvation energy          =      -0.71163672 Ry
     periodic energy correct.  =       0.00008234 Ry
     external charges energy   =       0.90911400 Ry

     iteration #  7     ecut=    35.00 Ry     beta=0.20
     Davidson diagonalization with overlap
     ethr =  3.25E-05,  avg # of iterations =  5.0

     negative rho (up, down):  1.516E-04 0.000E+00

     add environment contribution to local potential
     polarization accuracy = 4.7E-13, # of iterations =  42

     total cpu time spent up to now is       92.2 secs

     total energy              =    -735.35944060 Ry
     Harris-Foulkes estimate   =    -749.50009183 Ry
     estimated scf accuracy    <       0.01027629 Ry
     solvation energy          =      -0.71974858 Ry
     periodic energy correct.  =       0.00013216 Ry
     external charges energy   =       0.90914186 Ry

     iteration #  8     ecut=    35.00 Ry     beta=0.20
     Davidson diagonalization with overlap
     ethr =  1.15E-05,  avg # of iterations =  2.0

     negative rho (up, down):  1.568E-04 0.000E+00

     add environment contribution to local potential
     polarization accuracy = 4.7E-13, # of iterations =  45

     total cpu time spent up to now is      104.7 secs

     total energy              =    -735.35785833 Ry
     Harris-Foulkes estimate   =    -749.31337141 Ry
     estimated scf accuracy    <       0.00453482 Ry
     solvation energy          =      -0.72190909 Ry
     periodic energy correct.  =       0.00013462 Ry
     external charges energy   =       0.90999744 Ry

     iteration #  9     ecut=    35.00 Ry     beta=0.20
     Davidson diagonalization with overlap
     ethr =  5.10E-06,  avg # of iterations =  3.0

     negative rho (up, down):  1.541E-04 0.000E+00

     add environment contribution to local potential
     polarization accuracy = 4.0E-13, # of iterations =  43

     total cpu time spent up to now is      116.9 secs

     total energy              =    -735.35920844 Ry
     Harris-Foulkes estimate   =    -748.99921513 Ry
     estimated scf accuracy    <       0.00514296 Ry
     solvation energy          =      -0.72516517 Ry
     periodic energy correct.  =       0.00012723 Ry
     external charges energy   =       0.91089012 Ry

     iteration # 10     ecut=    35.00 Ry     beta=0.20
     Davidson diagonalization with overlap
     ethr =  5.10E-06,  avg # of iterations =  1.0

     negative rho (up, down):  1.513E-04 0.000E+00

     add environment contribution to local potential
     polarization accuracy = 5.0E-13, # of iterations =  41

     total cpu time spent up to now is      128.7 secs

     total energy              =    -735.35991213 Ry
     Harris-Foulkes estimate   =    -748.88021673 Ry
     estimated scf accuracy    <       0.00222282 Ry
     solvation energy          =      -0.72702296 Ry
     periodic energy correct.  =       0.00011682 Ry
     external charges energy   =       0.91109995 Ry

     iteration # 11     ecut=    35.00 Ry     beta=0.20
     Davidson diagonalization with overlap
     ethr =  2.50E-06,  avg # of iterations = 17.0

     negative rho (up, down):  1.498E-04 0.000E+00

     add environment contribution to local potential
     polarization accuracy = 4.4E-13, # of iterations =  41

     total cpu time spent up to now is      141.6 secs

     total energy              =    -735.36011375 Ry
     Harris-Foulkes estimate   =    -748.75456273 Ry
     estimated scf accuracy    <       0.00033284 Ry
     solvation energy          =      -0.72835922 Ry
     periodic energy correct.  =       0.00014020 Ry
     external charges energy   =       0.91127610 Ry

     iteration # 12     ecut=    35.00 Ry     beta=0.20
     Davidson diagonalization with overlap
     ethr =  3.74E-07,  avg # of iterations =  1.0

     negative rho (up, down):  1.471E-04 0.000E+00

     add environment contribution to local potential
     polarization accuracy = 4.4E-13, # of iterations =  38

     total cpu time spent up to now is      153.0 secs

     total energy              =    -735.36051721 Ry
     Harris-Foulkes estimate   =    -748.65669736 Ry
     estimated scf accuracy    <       0.00042180 Ry
     solvation energy          =      -0.72934526 Ry
     periodic energy correct.  =       0.00014101 Ry
     external charges energy   =       0.91127452 Ry

     iteration # 13     ecut=    35.00 Ry     beta=0.20
     Davidson diagonalization with overlap
     ethr =  3.74E-07,  avg # of iterations =  1.0

     negative rho (up, down):  1.454E-04 0.000E+00

     add environment contribution to local potential
     polarization accuracy = 4.2E-13, # of iterations =  38

     total cpu time spent up to now is      164.3 secs

     total energy              =    -735.36056773 Ry
     Harris-Foulkes estimate   =    -748.59888305 Ry
     estimated scf accuracy    <       0.00002288 Ry
     solvation energy          =      -0.72997735 Ry
     periodic energy correct.  =       0.00014798 Ry
     external charges energy   =       0.91150275 Ry

     iteration # 14     ecut=    35.00 Ry     beta=0.20
     Davidson diagonalization with overlap
     ethr =  2.57E-08,  avg # of iterations =  2.0

     negative rho (up, down):  1.443E-04 0.000E+00

     add environment contribution to local potential
     polarization accuracy = 4.2E-13, # of iterations =  37

     total cpu time spent up to now is      175.6 secs

     total energy              =    -735.36071929 Ry
     Harris-Foulkes estimate   =    -748.56651485 Ry
     estimated scf accuracy    <       0.00000598 Ry
     solvation energy          =      -0.73045808 Ry
     periodic energy correct.  =       0.00014733 Ry
     external charges energy   =       0.91160518 Ry

     iteration # 15     ecut=    35.00 Ry     beta=0.20
     Davidson diagonalization with overlap
     ethr =  6.72E-09,  avg # of iterations =  2.0

     negative rho (up, down):  1.435E-04 0.000E+00

     add environment contribution to local potential
     polarization accuracy = 4.2E-13, # of iterations =  37

     total cpu time spent up to now is      186.9 secs

     total energy              =    -735.36075355 Ry
     Harris-Foulkes estimate   =    -748.54565701 Ry
     estimated scf accuracy    <       0.00000369 Ry
     solvation energy          =      -0.73079071 Ry
     periodic energy correct.  =       0.00014729 Ry
     external charges energy   =       0.91172211 Ry

     iteration # 16     ecut=    35.00 Ry     beta=0.20
     Davidson diagonalization with overlap
     ethr =  4.14E-09,  avg # of iterations =  2.0

     negative rho (up, down):  1.431E-04 0.000E+00

     add environment contribution to local potential
     polarization accuracy = 3.8E-13, # of iterations =  37

     total cpu time spent up to now is      198.3 secs

     total energy              =    -735.36078123 Ry
     Harris-Foulkes estimate   =    -748.53097999 Ry
     estimated scf accuracy    <       0.00000144 Ry
     solvation energy          =      -0.73106199 Ry
     periodic energy correct.  =       0.00014677 Ry
     external charges energy   =       0.91180110 Ry

     iteration # 17     ecut=    35.00 Ry     beta=0.20
     Davidson diagonalization with overlap
     ethr =  1.62E-09,  avg # of iterations =  2.0

     negative rho (up, down):  1.429E-04 0.000E+00

     add environment contribution to local potential
     polarization accuracy = 4.0E-13, # of iterations =  34

     total cpu time spent up to now is      209.3 secs

     total energy              =    -735.36087106 Ry
     Harris-Foulkes estimate   =    -748.51695742 Ry
     estimated scf accuracy    <       0.00000064 Ry
     solvation energy          =      -0.73124549 Ry
     periodic energy correct.  =       0.00014610 Ry
     external charges energy   =       0.91182563 Ry

     iteration # 18     ecut=    35.00 Ry     beta=0.20
     Davidson diagonalization with overlap
     ethr =  7.14E-10,  avg # of iterations =  2.0

     negative rho (up, down):  1.429E-04 0.000E+00

     add environment contribution to local potential
     polarization accuracy = 3.5E-13, # of iterations =  34

     total cpu time spent up to now is      220.2 secs

     total energy              =    -735.36088311 Ry
     Harris-Foulkes estimate   =    -748.51115901 Ry
     estimated scf accuracy    <       0.00000035 Ry
     solvation energy          =      -0.73132788 Ry
     periodic energy correct.  =       0.00014573 Ry
     external charges energy   =       0.91183438 Ry

     iteration # 19     ecut=    35.00 Ry     beta=0.20
     Davidson diagonalization with overlap
     ethr =  3.95E-10,  avg # of iterations =  2.0

     negative rho (up, down):  1.430E-04 0.000E+00

     add environment contribution to local potential
     polarization accuracy = 4.3E-13, # of iterations =  34

     total cpu time spent up to now is      231.2 secs

     total energy              =    -735.36088464 Ry
     Harris-Foulkes estimate   =    -748.50561942 Ry
     estimated scf accuracy    <       0.00000032 Ry
     solvation energy          =      -0.73139441 Ry
     periodic energy correct.  =       0.00014551 Ry
     external charges energy   =       0.91183631 Ry

     iteration # 20     ecut=    35.00 Ry     beta=0.20
     Davidson diagonalization with overlap
     ethr =  3.59E-10,  avg # of iterations =  3.0

     negative rho (up, down):  1.430E-04 0.000E+00

     add environment contribution to local potential
     polarization accuracy = 4.9E-13, # of iterations =  31

     total cpu time spent up to now is      242.1 secs

     total energy              =    -735.36090503 Ry
     Harris-Foulkes estimate   =    -748.50012843 Ry
     estimated scf accuracy    <       0.00000008 Ry
     solvation energy          =      -0.73145416 Ry
     periodic energy correct.  =       0.00014514 Ry
     external charges energy   =       0.91184039 Ry

     iteration # 21     ecut=    35.00 Ry     beta=0.20
     Davidson diagonalization with overlap
     ethr =  8.71E-11,  avg # of iterations =  3.0

     negative rho (up, down):  1.431E-04 0.000E+00

     add environment contribution to local potential
     polarization accuracy = 4.2E-13, # of iterations =  26

     total cpu time spent up to now is      252.2 secs

     total energy              =    -735.36093237 Ry
     Harris-Foulkes estimate   =    -748.49695769 Ry
     estimated scf accuracy    <       0.00000002 Ry
     solvation energy          =      -0.73147972 Ry
     periodic energy correct.  =       0.00014507 Ry
     external charges energy   =       0.91183657 Ry

     iteration # 22     ecut=    35.00 Ry     beta=0.20
     Davidson diagonalization with overlap
     ethr =  2.42E-11,  avg # of iterations =  2.0

     negative rho (up, down):  1.432E-04 0.000E+00

     add environment contribution to local potential
     polarization accuracy = 3.7E-13, # of iterations =  29

     total cpu time spent up to now is      262.3 secs

     total energy              =    -735.36092072 Ry
     Harris-Foulkes estimate   =    -748.49673800 Ry
     estimated scf accuracy    <       0.00000007 Ry
     solvation energy          =      -0.73148666 Ry
     periodic energy correct.  =       0.00014524 Ry
     external charges energy   =       0.91184042 Ry

     iteration # 23     ecut=    35.00 Ry     beta=0.20
     Davidson diagonalization with overlap
     ethr =  2.42E-11,  avg # of iterations =  2.0

     negative rho (up, down):  1.433E-04 0.000E+00

     add environment contribution to local potential
     polarization accuracy = 3.8E-13, # of iterations =  26

     total cpu time spent up to now is      272.3 secs

     total energy              =    -735.36093273 Ry
     Harris-Foulkes estimate   =    -748.49549126 Ry
     estimated scf accuracy    <       0.00000001 Ry
     solvation energy          =      -0.73149784 Ry
     periodic energy correct.  =       0.00014517 Ry
     external charges energy   =       0.91183887 Ry

     iteration # 24     ecut=    35.00 Ry     beta=0.20
     Davidson diagonalization with overlap
     ethr =  1.15E-11,  avg # of iterations =  2.0

     negative rho (up, down):  1.438E-04 0.000E+00

     total cpu time spent up to now is      277.9 secs

     End of self-consistent calculation

          k = 0.0000 0.0000 0.0000 ( 14571 PWs)   bands (ev):

   -30.2210 -16.7582 -15.1714 -13.8974 -13.7153 -13.1051 -13.0820 -13.0100
   -12.8295 -11.9660 -11.8445 -11.7187 -11.5036 -11.4791 -11.4013 -11.2671
   -10.5654 -10.5395 -10.4791 -10.2871 -10.2662 -10.2157 -10.1788 -10.1316
   -10.1132  -9.9301  -9.9014  -9.7737  -9.6855  -9.4510  -9.3600  -8.5833
    -8.4793  -8.1931  -7.9735  -7.9120  -7.8430  -7.6980  -7.5119  -7.4265
    -7.2581  -7.2440  -7.0314  -7.0309  -6.9937  -6.8338  -6.6707  -5.5168
    -5.2984  -5.2181  -4.5387  -3.9015  -3.7407  -2.7161  -2.4403  -2.4025
    -1.7294  -1.4126  -1.1004  -0.7216  -0.6184  -0.0319   0.4038   0.6493
     1.1800   1.4645   1.6723   1.8836   1.9848   2.2366   2.8482   2.9841
     3.1302   3.2100   3.6399   3.8929   3.9565   3.9952   4.2802   4.3632

     occupation numbers 
     1.0000   1.0000   1.0000   1.0000   1.0000   1.0000   1.0000   1.0000
     1.0000   1.0000   1.0000   1.0000   1.0000   1.0000   1.0000   1.0000
     1.0000   1.0000   1.0000   1.0000   1.0000   1.0000   1.0000   1.0000
     1.0000   1.0000   1.0000   1.0000   1.0000   1.0000   1.0000   1.0000
     1.0000   1.0006   1.0063   1.0107   1.0181   1.0440   1.0812   1.0800
     0.9883   0.9739   0.6473   0.6464   0.5776   0.3050   0.1205   0.0000
     0.0000   0.0000   0.0000   0.0000   0.0000   0.0000   0.0000   0.0000
     0.0000   0.0000   0.0000   0.0000   0.0000   0.0000   0.0000   0.0000
     0.0000   0.0000   0.0000   0.0000   0.0000   0.0000   0.0000   0.0000
     0.0000   0.0000   0.0000   0.0000   0.0000   0.0000   0.0000   0.0000

     the Fermi energy is    -6.8944 ev

!    total energy              =    -735.36093284 Ry
     Harris-Foulkes estimate   =    -748.49547142 Ry
     estimated scf accuracy    <          3.8E-09 Ry

     The total energy is the sum of the following terms:

     one-electron contribution =   -3945.99376904 Ry
     hartree contribution      =    2002.99657594 Ry
     xc contribution           =    -378.70222953 Ry
     ewald contribution        =    1573.20467954 Ry
     smearing contrib. (-TS)   =      -0.00072833 Ry
     solvation energy          =      -0.73149806 Ry
     periodic energy correct.  =       0.00014528 Ry
     external charges energy   =       0.91183887 Ry

     convergence has been achieved in  24 iterations

     Forces acting on atoms (Ry/au):


     negative rho (up, down):  1.438E-04 0.000E+00
     The dielectric solvent contribution to forces
     atom    1 type  1   force =     0.00009121    0.00581783   -0.18581537
     atom    2 type  2   force =     0.00005460    0.00424243   -0.59492150
     atom    3 type  3   force =    -0.00086187   -0.00376637    0.04276285
     atom    4 type  3   force =     0.00087545   -0.00378143    0.04282849
     atom    5 type  3   force =    -0.00016359    0.00209576    0.02070087
     atom    6 type  3   force =     0.00009286    0.00501211   -0.02133741
     atom    7 type  3   force =    -0.00048358    0.00749367    0.03441810
     atom    8 type  3   force =     0.00040265    0.00881727    0.03619583
     atom    9 type  3   force =    -0.00906307   -0.00717223    0.01858453
     atom   10 type  3   force =     0.00909554   -0.00721378    0.01794922
     The external charges contribution to forces
     atom    1 type  1   force =     0.00000000    0.00000000    0.12512579
     atom    2 type  2   force =     0.00000000    0.00000000    0.26627023
     atom    3 type  3   force =     0.00000000    0.00000000    0.07785110
     atom    4 type  3   force =     0.00000000    0.00000000    0.07785096
     atom    5 type  3   force =     0.00000000    0.00000000    0.07644537
     atom    6 type  3   force =     0.00000000    0.00000000    0.10117702
     atom    7 type  3   force =     0.00000000    0.00000000   -0.18588272
     atom    8 type  3   force =     0.00000000    0.00000000   -0.17693456
     atom    9 type  3   force =     0.00000000    0.00000000   -0.18084635
     atom   10 type  3   force =     0.00000000    0.00000000   -0.18084618
     The global environment contribution to forces
     atom    1 type  1   force =     0.00009121    0.00581783   -0.05845399
     atom    2 type  2   force =     0.00005460    0.00424243   -0.32529759
     atom    3 type  3   force =    -0.00086187   -0.00376637    0.12620200
     atom    4 type  3   force =     0.00087545   -0.00378143    0.12626750
     atom    5 type  3   force =    -0.00016359    0.00209576    0.10273429
     atom    6 type  3   force =     0.00009286    0.00501211    0.08542775
     atom    7 type  3   force =    -0.00048358    0.00749367   -0.14587758
     atom    8 type  3   force =     0.00040265    0.00881727   -0.13515167
     atom    9 type  3   force =    -0.00906307   -0.00717223   -0.15667476
     atom   10 type  3   force =     0.00909554   -0.00721378   -0.15730990
 
     atom    1 type  1   force =    -0.00001667   -0.00443815    0.08364095
     atom    2 type  2   force =     0.00006358    0.00143402   -0.05962200
     atom    3 type  3   force =     0.00038284    0.01399617    0.03289757
     atom    4 type  3   force =     0.00064365    0.01428630    0.03360148
     atom    5 type  3   force =    -0.00182008    0.01276470   -0.00361504
     atom    6 type  3   force =     0.00079986    0.00783033    0.04262153
     atom    7 type  3   force =    -0.00153318   -0.01434304   -0.03748352
     atom    8 type  3   force =     0.00044786   -0.02018162   -0.02057954
     atom    9 type  3   force =     0.01752759   -0.00585555   -0.03595657
     atom   10 type  3   force =    -0.01649544   -0.00549316   -0.03550486
     The non-local contrib.  to forces
     atom    1 type  1   force =    -0.00008467   -0.00750924    0.58230722
     atom    2 type  2   force =     0.00019483    0.03855061   -2.92598424
     atom    3 type  3   force =    -0.02658365   -0.00122874   -0.10393769
     atom    4 type  3   force =     0.02668781   -0.00106076   -0.10439785
     atom    5 type  3   force =     0.00100066    0.00436256   -0.15558033
     atom    6 type  3   force =    -0.00081110   -0.01671864    0.50072581
     atom    7 type  3   force =     0.00061463    0.02491462    0.06483912
     atom    8 type  3   force =    -0.00091682   -0.01816406    0.09224636
     atom    9 type  3   force =     0.01906617   -0.00382671    0.05458217
     atom   10 type  3   force =    -0.01897186   -0.00349991    0.05337532
     The ionic contribution  to forces
     atom    1 type  1   force =     0.00636806    0.05296760   19.96835427
     atom    2 type  2   force =     0.00226724   -0.13041391   48.33963012
     atom    3 type  3   force =     0.50324609   -0.09020628   30.03736972
     atom    4 type  3   force =    -0.49292694   -0.08303178   30.06216876
     atom    5 type  3   force =    -0.07802400    0.12039865   29.68099553
     atom    6 type  3   force =     0.05586768    0.10046245   29.12582959
     atom    7 type  3   force =    -0.06942211   -0.08855591  -48.10896481
     atom    8 type  3   force =     0.05843526    0.13450123  -45.70999247
     atom    9 type  3   force =     0.08482129   -0.01166389  -46.71013044
     atom   10 type  3   force =    -0.07063256   -0.00445817  -46.68526027
     The local contribution  to forces
     atom    1 type  1   force =    -0.00639653   -0.05570495  -20.40847232
     atom    2 type  2   force =    -0.00245855    0.08906244  -45.14790962
     atom    3 type  3   force =    -0.47811452    0.11274318  -30.01612814
     atom    4 type  3   force =     0.46886875    0.10561553  -30.04000510
     atom    5 type  3   force =     0.07491628   -0.11038102  -29.62746758
     atom    6 type  3   force =    -0.05409491   -0.07721362  -29.73799917
     atom    7 type  3   force =     0.06725424    0.03425416   48.13897487
     atom    8 type  3   force =    -0.05711477   -0.14096089   45.71620409
     atom    9 type  3   force =    -0.08461963    0.01257453   46.75937914
     atom   10 type  3   force =     0.07152026    0.00541798   46.73663279
     The core correction contribution to forces
     atom    1 type  1   force =     0.00000000    0.00000000    0.00000000
     atom    2 type  2   force =     0.00000000    0.00000000    0.00000000
     atom    3 type  3   force =     0.00270060   -0.00353862   -0.01043897
     atom    4 type  3   force =    -0.00287622   -0.00344834   -0.01026110
     atom    5 type  3   force =     0.00044346   -0.00370299   -0.00410978
     atom    6 type  3   force =    -0.00025835   -0.00369939    0.06878328
     atom    7 type  3   force =     0.00049682    0.00755108    0.01370432
     atom    8 type  3   force =    -0.00036203   -0.00437117    0.01623410
     atom    9 type  3   force =     0.00734638    0.00424992    0.01705536
     atom   10 type  3   force =    -0.00754115    0.00427766    0.01722881
     The Hubbard contrib.    to forces
     atom    1 type  1   force =     0.00000000    0.00000000    0.00000000
     atom    2 type  2   force =     0.00000000    0.00000000    0.00000000
     atom    3 type  3   force =     0.00000000    0.00000000    0.00000000
     atom    4 type  3   force =     0.00000000    0.00000000    0.00000000
     atom    5 type  3   force =     0.00000000    0.00000000    0.00000000
     atom    6 type  3   force =     0.00000000    0.00000000    0.00000000
     atom    7 type  3   force =     0.00000000    0.00000000    0.00000000
     atom    8 type  3   force =     0.00000000    0.00000000    0.00000000
     atom    9 type  3   force =     0.00000000    0.00000000    0.00000000
     atom   10 type  3   force =     0.00000000    0.00000000    0.00000000
     The SCF correction term to forces
     atom    1 type  1   force =    -0.00000014   -0.00000069    0.00001631
     atom    2 type  2   force =     0.00000006    0.00000116    0.00004987
     atom    3 type  3   force =    -0.00000922    0.00000170   -0.00005881
     atom    4 type  3   force =     0.00000939    0.00000178   -0.00006019
     atom    5 type  3   force =     0.00000171    0.00000045   -0.00007663
     atom    6 type  3   force =    -0.00000171   -0.00000387   -0.00003518
     atom    7 type  3   force =     0.00000141    0.00000805   -0.00004889
     atom    8 type  3   force =    -0.00000182    0.00000471   -0.00000940
     atom    9 type  3   force =    -0.00002894   -0.00000848   -0.00005748
     atom   10 type  3   force =     0.00002893   -0.00000823   -0.00006106

     Total force =     0.144511     Total SCF correction =     0.000169

     Writing output data file PtCO_helmotz_water.save
 
     init_run     :      9.72s CPU      9.99s WALL (       1 calls)
     electrons    :    260.12s CPU    267.93s WALL (       1 calls)
     forces       :      6.42s CPU      6.61s WALL (       1 calls)

     Called by init_run:
     wfcinit      :      1.11s CPU      1.12s WALL (       1 calls)
     potinit      :      2.55s CPU      2.60s WALL (       1 calls)

     Called by electrons:
     c_bands      :     72.34s CPU     73.30s WALL (      24 calls)
     sum_band     :     34.83s CPU     38.11s WALL (      24 calls)
     v_of_rho     :      9.38s CPU      9.57s WALL (      25 calls)
     v_h          :      2.24s CPU      2.28s WALL (      92 calls)
     v_xc         :      9.12s CPU      9.31s WALL (      26 calls)
     newd         :     17.22s CPU     20.31s WALL (      25 calls)
     mix_rho      :      1.66s CPU      1.68s WALL (      24 calls)

     Called by c_bands:
     init_us_2    :      0.43s CPU      0.44s WALL (      49 calls)
     cegterg      :     69.84s CPU     70.79s WALL (      24 calls)

     Called by sum_band:
     sum_band:bec :      0.01s CPU      0.01s WALL (      24 calls)
     addusdens    :     21.94s CPU     25.16s WALL (      24 calls)

     Called by *egterg:
     h_psi        :     46.12s CPU     46.28s WALL (     108 calls)
     s_psi        :      4.18s CPU      4.19s WALL (     108 calls)
     g_psi        :      0.50s CPU      0.50s WALL (      83 calls)
     cdiaghg      :      2.97s CPU      2.98s WALL (     107 calls)
     cegterg:over :      6.73s CPU      6.74s WALL (      83 calls)
     cegterg:upda :      4.31s CPU      4.32s WALL (      83 calls)
     cegterg:last :      2.71s CPU      2.71s WALL (      24 calls)

     Called by h_psi:
     h_psi:vloc   :     37.51s CPU     37.66s WALL (     108 calls)
     h_psi:vnl    :      8.40s CPU      8.42s WALL (     108 calls)
     add_vuspsi   :      4.16s CPU      4.17s WALL (     108 calls)

     General routines
     calbec       :      6.33s CPU      6.34s WALL (     136 calls)
     fft          :     68.34s CPU     68.67s WALL (    3847 calls)
     ffts         :      0.26s CPU      0.26s WALL (      49 calls)
     fftw         :     39.66s CPU     39.82s WALL (   10652 calls)
     interpolate  :      1.28s CPU      1.29s WALL (      49 calls)
     davcio       :      0.00s CPU      0.01s WALL (       1 calls)
 
     Parallel routines
     fft_scatter  :     26.41s CPU     26.60s WALL (   14548 calls)
 
     Environ routines
     calc_esolv   :      1.15s CPU      1.15s WALL (      24 calls)
     calc_vsolv   :    119.74s CPU    120.14s WALL (      21 calls)
     dielectric   :      2.89s CPU      2.91s WALL (      21 calls)
     get_rhopol   :    115.77s CPU    116.15s WALL (      21 calls)
     calc_veps    :      2.85s CPU      2.86s WALL (      21 calls)
     calc_epbc    :      0.03s CPU      0.03s WALL (      24 calls)
     calc_vpbc    :      0.70s CPU      0.70s WALL (      21 calls)
     calc_fpbc    :      0.00s CPU      0.00s WALL (       1 calls)
     get_extcharg :    232.84s CPU    239.62s WALL (       2 calls)
 
     PWSCF        :  4m36.45s CPU     4m44.73s WALL

 
   This run was terminated on:  17:50:59   8Jul2015            

=------------------------------------------------------------------------------=
   JOB DONE.
=------------------------------------------------------------------------------=
