
     Program PWSCF v.6.1 (svn rev. 13369) starts on 30Jan2018 at 13:18:37 

     This program is part of the open-source Quantum ESPRESSO suite
     for quantum simulation of materials; please cite
         "P. Giannozzi et al., J. Phys.:Condens. Matter 21 395502 (2009);
          URL http://www.quantum-espresso.org", 
     in publications or presentations arising from this work. More details at
     http://www.quantum-espresso.org/quote

     Parallel version (MPI), running on     1 processors
     Waiting for input...
     Reading input from standard input

     Current dimensions of program PWSCF are:
     Max number of different atomic species (ntypx) = 10
     Max number of k-points (npk) =  40000
     Max angular momentum in pseudopotentials (lmaxx) =  3
               file C.pbe-rrkjus.UPF: wavefunction(s)  2S 2P renormalized
               file O.pbe-rrkjus.UPF: wavefunction(s)  2S renormalized

     Subspace diagonalization in iterative solution of the eigenvalue problem:
     a serial algorithm will be used

 
     G-vector sticks info
     --------------------
     sticks:   dense  smooth     PW     G-vecs:    dense   smooth      PW
     Sum        2205    1099    269               330909   116965   14571
 


     bravais-lattice index     =            8
     lattice parameter (alat)  =      10.6881  a.u.
     unit-cell volume          =    4181.1215 (a.u.)^3
     number of atoms/cell      =           10
     number of atomic types    =            3
     number of electrons       =        89.00
     number of Kohn-Sham states=           80
     kinetic-energy cutoff     =      35.0000  Ry
     charge density cutoff     =     280.0000  Ry
     convergence threshold     =      5.0E-09
     mixing beta               =       0.2000
     number of iterations used =            8  plain     mixing
     Exchange-correlation      =  SLA  PW   PBE  PBE ( 1  4  3  4 0 0)
 

     Environ Module
     ==============

     Plese cite
         O. Andreussi, I. Dabo and N. Marzari, J. Chem. Phys. 136, 064102 (2012)         
     in publications or presentations arising from this work.

     compensation onset threshold      =               0.1000E+01 
     static permittivity               =                    80.00 
     epsilon calculation mode          =                     full 

     Electrostatic Setup
     -------------------
     electrostatic problem to solve    = linmodpb                 
     numerical solver adopted          = cg                       
     type of auxiliary density adopted = none                     
     type of core tool for poisson     = fft                      
     type of core tool for s(r) deriv  = analytic                 



     celldm(1)=  10.688100  celldm(2)=   0.866025  celldm(3)=   3.954220
     celldm(4)=   0.000000  celldm(5)=   0.000000  celldm(6)=   0.000000

     crystal axes: (cart. coord. in units of alat)
               a(1) = (   1.000000   0.000000   0.000000 )  
               a(2) = (   0.000000   0.866025   0.000000 )  
               a(3) = (   0.000000   0.000000   3.954220 )  

     reciprocal axes: (cart. coord. in units 2 pi/alat)
               b(1) = (  1.000000  0.000000  0.000000 )  
               b(2) = (  0.000000  1.154701  0.000000 )  
               b(3) = (  0.000000  0.000000  0.252894 )  


     PseudoPot. # 1 for Pt read from file:
     /home/fnattino/Programs/qe-6.1/pseudo/Pt.pbe-nd-rrkjus.UPF
     MD5 check sum: 1413c21c79e416b56dc03f2d0e22670c
     Pseudo is Ultrasoft + core correction, Zval = 10.0
     Generated by new atomic code, or converted to UPF format
     Using radial grid of 1547 points,  3 beta functions with: 
                l(1) =   1
                l(2) =   2
                l(3) =   2
     Q(r) pseudized with 0 coefficients 


     PseudoPot. # 2 for C  read from file:
     /home/fnattino/Programs/qe-6.1/pseudo/C.pbe-rrkjus.UPF
     MD5 check sum: 00fb224312de0c5b6853bd333518df6f
     Pseudo is Ultrasoft, Zval =  4.0
     Generated by new atomic code, or converted to UPF format
     Using radial grid of  627 points,  4 beta functions with: 
                l(1) =   0
                l(2) =   0
                l(3) =   1
                l(4) =   1
     Q(r) pseudized with 0 coefficients 


     PseudoPot. # 3 for O  read from file:
     /home/fnattino/Programs/qe-6.1/pseudo/O.pbe-rrkjus.UPF
     MD5 check sum: 390ba29e75625707450f3bd3f0eb6be9
     Pseudo is Ultrasoft, Zval =  6.0
     Generated by new atomic code, or converted to UPF format
     Using radial grid of 1269 points,  4 beta functions with: 
                l(1) =   0
                l(2) =   0
                l(3) =   1
                l(4) =   1
     Q(r) pseudized with 0 coefficients 


     atomic species   valence    mass     pseudopotential
        Pt            10.00     1.00000     Pt( 1.00)
        C              4.00     1.00000     C ( 1.00)
        O              6.00     1.00000     O ( 1.00)

     No symmetry found


                                    s                        frac. trans.

      isym =  1     identity                                     

 cryst.   s( 1) = (     1          0          0      )
                  (     0          1          0      )
                  (     0          0          1      )

 cart.    s( 1) = (  1.0000000  0.0000000  0.0000000 )
                  (  0.0000000  1.0000000  0.0000000 )
                  (  0.0000000  0.0000000  1.0000000 )


     point group C_1 (1)    
     there are  1 classes
     the character table:

       E    
A      1.00

     the symmetry operations in each class and the name of the first element:

     E        1
          identity                                               

   Cartesian axes

     site n.     atom                  positions (alat units)
         1           Pt  tau(   1) = (   0.7542339   0.0091745   0.8413229  )
         2           Pt  tau(   2) = (   0.2441023   0.0091745   0.8413226  )
         3           Pt  tau(   3) = (   0.0000034   0.4416918   0.8391348  )
         4           Pt  tau(   4) = (   0.4991682   0.4417635   0.8776299  )
         5           Pt  tau(   5) = (   0.0000038   0.7300598   0.4308181  )
         6           Pt  tau(   6) = (   0.4991683   0.7202168   0.4447460  )
         7           Pt  tau(   7) = (   0.2524172   0.2949237   0.4386572  )
         8           Pt  tau(   8) = (   0.7459196   0.2949237   0.4386575  )
         9           C   tau(   9) = (   0.4991611   0.4347567   1.2070461  )
        10           O   tau(  10) = (   0.4991542   0.4322212   1.4109013  )

   Crystallographic axes

     site n.     atom                  positions (cryst. coord.)
         1           Pt  tau(   1) = (  0.7542339  0.0105938  0.2127658  )
         2           Pt  tau(   2) = (  0.2441023  0.0105938  0.2127658  )
         3           Pt  tau(   3) = (  0.0000034  0.5100220  0.2122125  )
         4           Pt  tau(   4) = (  0.4991682  0.5101048  0.2219477  )
         5           Pt  tau(   5) = (  0.0000038  0.8430008  0.1089515  )
         6           Pt  tau(   6) = (  0.4991683  0.8316351  0.1124738  )
         7           Pt  tau(   7) = (  0.2524172  0.3405487  0.1109339  )
         8           Pt  tau(   8) = (  0.7459196  0.3405488  0.1109340  )
         9           C   tau(   9) = (  0.4991611  0.5020141  0.3052552  )
        10           O   tau(  10) = (  0.4991542  0.4990863  0.3568090  )

     number of k points=     1  Marzari-Vanderbilt smearing, width (Ry)=  0.0300
                       cart. coord. in units 2pi/alat
        k(    1) = (   0.0000000   0.0000000   0.0000000), wk =   2.0000000

                       cryst. coord.
        k(    1) = (   0.0000000   0.0000000   0.0000000), wk =   2.0000000

     Dense  grid:   330909 G-vectors     FFT dimensions: (  60,  50, 225)

     Smooth grid:   116965 G-vectors     FFT dimensions: (  45,  36, 160)

     Estimated max dynamical RAM per process >     378.02MB

     Check: negative/imaginary core charge=   -0.000038    0.000000

     Initial potential from superposition of free atoms

     starting charge   89.99875, renormalised to   89.00000

     negative rho (up, down):  7.106E-05 0.000E+00
     Starting wfc are   56 randomized atomic wfcs +   24 random wfc

     total cpu time spent up to now is        6.1 secs

     per-process dynamical memory:   428.0 Mb

     Self-consistent Calculation

     iteration #  1     ecut=    35.00 Ry     beta=0.20
     Davidson diagonalization with overlap
     ethr =  1.00E-02,  avg # of iterations =  7.0

     negative rho (up, down):  7.727E-05 0.000E+00

     total cpu time spent up to now is       10.1 secs

     total energy              =    -735.16708935 Ry
     Harris-Foulkes estimate   =    -735.95156912 Ry
     estimated scf accuracy    <       2.31915284 Ry
     electrostatic embedding   =       0.03381190 Ry
     electrolyte free energy   =       0.00552873 Ry
     correction to one-el term =       0.00000000 Ry

     iteration #  2     ecut=    35.00 Ry     beta=0.20
     Davidson diagonalization with overlap
     ethr =  2.61E-03,  avg # of iterations =  4.0

     negative rho (up, down):  1.372E-04 0.000E+00

     total cpu time spent up to now is       13.1 secs

     total energy              =    -734.88263162 Ry
     Harris-Foulkes estimate   =    -736.43440607 Ry
     estimated scf accuracy    <      17.12182875 Ry
     electrostatic embedding   =       0.03381190 Ry
     electrolyte free energy   =       0.00552873 Ry
     correction to one-el term =       0.00000000 Ry

     iteration #  3     ecut=    35.00 Ry     beta=0.20
     Davidson diagonalization with overlap
     ethr =  2.61E-03,  avg # of iterations =  2.0

     negative rho (up, down):  1.084E-04 0.000E+00

     add environment contribution to local potential

     total cpu time spent up to now is       18.8 secs

     total energy              =    -735.52726294 Ry
     Harris-Foulkes estimate   =    -735.65117395 Ry
     estimated scf accuracy    <       0.52332249 Ry
     electrostatic embedding   =       0.03381190 Ry
     electrolyte free energy   =       0.00552873 Ry
     correction to one-el term =       0.00000000 Ry

     iteration #  4     ecut=    35.00 Ry     beta=0.20
     Davidson diagonalization with overlap
     ethr =  5.88E-04,  avg # of iterations =  8.0

     negative rho (up, down):  1.082E-04 0.000E+00

     add environment contribution to local potential

     total cpu time spent up to now is       25.4 secs

     total energy              =    -735.33351866 Ry
     Harris-Foulkes estimate   =    -749.68866713 Ry
     estimated scf accuracy    <       0.23173507 Ry
     electrostatic embedding   =       0.25272935 Ry
     electrolyte free energy   =      -0.00761735 Ry
     correction to one-el term =      14.05614701 Ry

     iteration #  5     ecut=    35.00 Ry     beta=0.20
     Davidson diagonalization with overlap
     ethr =  2.60E-04,  avg # of iterations =  5.0

     negative rho (up, down):  1.271E-04 0.000E+00

     add environment contribution to local potential

     total cpu time spent up to now is       31.3 secs

     total energy              =    -735.33676631 Ry
     Harris-Foulkes estimate   =    -748.04589310 Ry
     estimated scf accuracy    <       0.04611828 Ry
     electrostatic embedding   =       0.23877633 Ry
     electrolyte free energy   =      -0.00688285 Ry
     correction to one-el term =      12.46457601 Ry

     iteration #  6     ecut=    35.00 Ry     beta=0.20
     Davidson diagonalization with overlap
     ethr =  5.18E-05,  avg # of iterations =  6.0

     negative rho (up, down):  1.531E-04 0.000E+00

     add environment contribution to local potential

     total cpu time spent up to now is       37.5 secs

     total energy              =    -735.33555975 Ry
     Harris-Foulkes estimate   =    -746.78488065 Ry
     estimated scf accuracy    <       0.02925519 Ry
     electrostatic embedding   =       0.22840799 Ry
     electrolyte free energy   =      -0.00625097 Ry
     correction to one-el term =      11.22110168 Ry

     iteration #  7     ecut=    35.00 Ry     beta=0.20
     Davidson diagonalization with overlap
     ethr =  3.29E-05,  avg # of iterations =  4.0

     negative rho (up, down):  1.593E-04 0.000E+00

     add environment contribution to local potential

     total cpu time spent up to now is       43.3 secs

     total energy              =    -735.33669731 Ry
     Harris-Foulkes estimate   =    -745.86859374 Ry
     estimated scf accuracy    <       0.00919669 Ry
     electrostatic embedding   =       0.22090680 Ry
     electrolyte free energy   =      -0.00575098 Ry
     correction to one-el term =      10.31503873 Ry

     iteration #  8     ecut=    35.00 Ry     beta=0.20
     Davidson diagonalization with overlap
     ethr =  1.03E-05,  avg # of iterations =  5.0

     negative rho (up, down):  1.587E-04 0.000E+00

     add environment contribution to local potential

     total cpu time spent up to now is       49.4 secs

     total energy              =    -735.33711496 Ry
     Harris-Foulkes estimate   =    -745.47603612 Ry
     estimated scf accuracy    <       0.00285627 Ry
     electrostatic embedding   =       0.21747738 Ry
     electrolyte free energy   =      -0.00551426 Ry
     correction to one-el term =       9.92623266 Ry

     iteration #  9     ecut=    35.00 Ry     beta=0.20
     Davidson diagonalization with overlap
     ethr =  3.21E-06,  avg # of iterations =  4.0

     negative rho (up, down):  1.544E-04 0.000E+00

     add environment contribution to local potential

     total cpu time spent up to now is       55.3 secs

     total energy              =    -735.33743543 Ry
     Harris-Foulkes estimate   =    -745.27888164 Ry
     estimated scf accuracy    <       0.00335991 Ry
     electrostatic embedding   =       0.21552693 Ry
     electrolyte free energy   =      -0.00538182 Ry
     correction to one-el term =       9.73094205 Ry

     iteration # 10     ecut=    35.00 Ry     beta=0.20
     Davidson diagonalization with overlap
     ethr =  3.21E-06,  avg # of iterations =  1.0

     negative rho (up, down):  1.519E-04 0.000E+00

     add environment contribution to local potential

     total cpu time spent up to now is       61.1 secs

     total energy              =    -735.33742088 Ry
     Harris-Foulkes estimate   =    -745.16400999 Ry
     estimated scf accuracy    <       0.00357311 Ry
     electrostatic embedding   =       0.21409193 Ry
     electrolyte free energy   =      -0.00531772 Ry
     correction to one-el term =       9.61735020 Ry

     iteration # 11     ecut=    35.00 Ry     beta=0.20
     Davidson diagonalization with overlap
     ethr =  3.21E-06,  avg # of iterations =  1.0

     negative rho (up, down):  1.516E-04 0.000E+00

     add environment contribution to local potential

     total cpu time spent up to now is       67.0 secs

     total energy              =    -735.33722574 Ry
     Harris-Foulkes estimate   =    -745.03901835 Ry
     estimated scf accuracy    <       0.00243642 Ry
     electrostatic embedding   =       0.21232730 Ry
     electrolyte free energy   =      -0.00525782 Ry
     correction to one-el term =       9.49403958 Ry

     iteration # 12     ecut=    35.00 Ry     beta=0.20
     Davidson diagonalization with overlap
     ethr =  2.74E-06,  avg # of iterations =  6.0

     negative rho (up, down):  1.473E-04 0.000E+00

     add environment contribution to local potential

     total cpu time spent up to now is       73.1 secs

     total energy              =    -735.33771144 Ry
     Harris-Foulkes estimate   =    -744.82091658 Ry
     estimated scf accuracy    <       0.00061596 Ry
     electrostatic embedding   =       0.20938174 Ry
     electrolyte free energy   =      -0.00514798 Ry
     correction to one-el term =       9.27872179 Ry

     iteration # 13     ecut=    35.00 Ry     beta=0.20
     Davidson diagonalization with overlap
     ethr =  6.92E-07,  avg # of iterations =  2.0

     negative rho (up, down):  1.447E-04 0.000E+00

     add environment contribution to local potential

     total cpu time spent up to now is       78.9 secs

     total energy              =    -735.33777683 Ry
     Harris-Foulkes estimate   =    -744.83361601 Ry
     estimated scf accuracy    <       0.00040138 Ry
     electrostatic embedding   =       0.20873949 Ry
     electrolyte free energy   =      -0.00513766 Ry
     correction to one-el term =       9.29210501 Ry

     iteration # 14     ecut=    35.00 Ry     beta=0.20
     Davidson diagonalization with overlap
     ethr =  4.51E-07,  avg # of iterations =  2.0

     negative rho (up, down):  1.434E-04 0.000E+00

     add environment contribution to local potential

     total cpu time spent up to now is       85.0 secs

     total energy              =    -735.33786082 Ry
     Harris-Foulkes estimate   =    -744.80816992 Ry
     estimated scf accuracy    <       0.00011663 Ry
     electrostatic embedding   =       0.20778946 Ry
     electrolyte free energy   =      -0.00512490 Ry
     correction to one-el term =       9.26758957 Ry

     iteration # 15     ecut=    35.00 Ry     beta=0.20
     Davidson diagonalization with overlap
     ethr =  1.31E-07,  avg # of iterations =  2.0

     negative rho (up, down):  1.423E-04 0.000E+00

     add environment contribution to local potential

     total cpu time spent up to now is       90.9 secs

     total energy              =    -735.33791787 Ry
     Harris-Foulkes estimate   =    -744.77562802 Ry
     estimated scf accuracy    <       0.00001287 Ry
     electrostatic embedding   =       0.20682178 Ry
     electrolyte free energy   =      -0.00511172 Ry
     correction to one-el term =       9.23599592 Ry

     iteration # 16     ecut=    35.00 Ry     beta=0.20
     Davidson diagonalization with overlap
     ethr =  1.45E-08,  avg # of iterations =  2.0

     negative rho (up, down):  1.419E-04 0.000E+00

     add environment contribution to local potential

     total cpu time spent up to now is       96.8 secs

     total energy              =    -735.33790604 Ry
     Harris-Foulkes estimate   =    -744.80160208 Ry
     estimated scf accuracy    <       0.00003072 Ry
     electrostatic embedding   =       0.20724262 Ry
     electrolyte free energy   =      -0.00512821 Ry
     correction to one-el term =       9.26156599 Ry

     iteration # 17     ecut=    35.00 Ry     beta=0.20
     Davidson diagonalization with overlap
     ethr =  1.45E-08,  avg # of iterations =  2.0

     negative rho (up, down):  1.417E-04 0.000E+00

     add environment contribution to local potential

     total cpu time spent up to now is      102.7 secs

     total energy              =    -735.33792302 Ry
     Harris-Foulkes estimate   =    -744.79735675 Ry
     estimated scf accuracy    <       0.00000496 Ry
     electrostatic embedding   =       0.20680909 Ry
     electrolyte free energy   =      -0.00512919 Ry
     correction to one-el term =       9.25775170 Ry

     iteration # 18     ecut=    35.00 Ry     beta=0.20
     Davidson diagonalization with overlap
     ethr =  5.57E-09,  avg # of iterations =  2.0

     negative rho (up, down):  1.417E-04 0.000E+00

     add environment contribution to local potential

     total cpu time spent up to now is      108.6 secs

     total energy              =    -735.33792534 Ry
     Harris-Foulkes estimate   =    -744.80377029 Ry
     estimated scf accuracy    <       0.00000223 Ry
     electrostatic embedding   =       0.20673654 Ry
     electrolyte free energy   =      -0.00513289 Ry
     correction to one-el term =       9.26424026 Ry

     iteration # 19     ecut=    35.00 Ry     beta=0.20
     Davidson diagonalization with overlap
     ethr =  2.50E-09,  avg # of iterations =  2.0

     negative rho (up, down):  1.418E-04 0.000E+00

     add environment contribution to local potential

     total cpu time spent up to now is      114.5 secs

     total energy              =    -735.33792700 Ry
     Harris-Foulkes estimate   =    -744.80760341 Ry
     estimated scf accuracy    <       0.00000096 Ry
     electrostatic embedding   =       0.20667515 Ry
     electrolyte free energy   =      -0.00513430 Ry
     correction to one-el term =       9.26813516 Ry

     iteration # 20     ecut=    35.00 Ry     beta=0.20
     Davidson diagonalization with overlap
     ethr =  1.08E-09,  avg # of iterations =  2.0

     negative rho (up, down):  1.420E-04 0.000E+00

     add environment contribution to local potential

     total cpu time spent up to now is      120.3 secs

     total energy              =    -735.33792794 Ry
     Harris-Foulkes estimate   =    -744.81169492 Ry
     estimated scf accuracy    <       0.00000021 Ry
     electrostatic embedding   =       0.20666445 Ry
     electrolyte free energy   =      -0.00513558 Ry
     correction to one-el term =       9.27223805 Ry

     iteration # 21     ecut=    35.00 Ry     beta=0.20
     Davidson diagonalization with overlap
     ethr =  2.39E-10,  avg # of iterations =  2.0

     negative rho (up, down):  1.421E-04 0.000E+00

     add environment contribution to local potential

     total cpu time spent up to now is      126.2 secs

     total energy              =    -735.33792841 Ry
     Harris-Foulkes estimate   =    -744.81681461 Ry
     estimated scf accuracy    <       0.00000006 Ry
     electrostatic embedding   =       0.20669446 Ry
     electrolyte free energy   =      -0.00513686 Ry
     correction to one-el term =       9.27732860 Ry

     iteration # 22     ecut=    35.00 Ry     beta=0.20
     Davidson diagonalization with overlap
     ethr =  6.80E-11,  avg # of iterations =  2.0

     negative rho (up, down):  1.422E-04 0.000E+00

     add environment contribution to local potential

     total cpu time spent up to now is      132.1 secs

     total energy              =    -735.33792840 Ry
     Harris-Foulkes estimate   =    -744.81882683 Ry
     estimated scf accuracy    <       0.00000008 Ry
     electrostatic embedding   =       0.20672896 Ry
     electrolyte free energy   =      -0.00513705 Ry
     correction to one-el term =       9.27930650 Ry

     iteration # 23     ecut=    35.00 Ry     beta=0.20
     Davidson diagonalization with overlap
     ethr =  6.80E-11,  avg # of iterations =  2.0

     negative rho (up, down):  1.423E-04 0.000E+00

     add environment contribution to local potential

     total cpu time spent up to now is      138.0 secs

     total energy              =    -735.33792851 Ry
     Harris-Foulkes estimate   =    -744.82135302 Ry
     estimated scf accuracy    <       0.00000001 Ry
     electrostatic embedding   =       0.20674469 Ry
     electrolyte free energy   =      -0.00513741 Ry
     correction to one-el term =       9.28181723 Ry

     iteration # 24     ecut=    35.00 Ry     beta=0.20
     Davidson diagonalization with overlap
     ethr =  1.31E-11,  avg # of iterations =  2.0

     negative rho (up, down):  1.428E-04 0.000E+00

     total cpu time spent up to now is      140.9 secs

     End of self-consistent calculation

          k = 0.0000 0.0000 0.0000 ( 14571 PWs)   bands (ev):

   -29.5830 -16.0963 -14.5005 -13.1490 -12.9946 -12.4618 -12.4516 -12.3541
   -12.1740 -11.3091 -11.1838 -11.0595 -10.8451 -10.8163 -10.7407 -10.6061
    -9.9086  -9.8813  -9.8237  -9.6278  -9.6055  -9.5542  -9.5171  -9.4675
    -9.4489  -9.2685  -9.2410  -9.1117  -9.0281  -8.7902  -8.6997  -7.9224
    -7.8183  -7.5448  -7.3125  -7.2565  -7.1893  -7.0350  -6.8554  -6.7679
    -6.5965  -6.5852  -6.3695  -6.3690  -6.3308  -6.1699  -5.9744  -4.8644
    -4.6400  -4.5586  -3.8909  -3.2682  -3.0928  -2.0743  -1.7912  -1.7468
    -1.1602  -0.9269  -0.4136  -0.2014  -0.0022   0.4929   1.0572   1.3111
     1.6855   2.1048   2.2856   2.4821   2.6458   2.8319   3.5110   3.5542
     3.5899   3.6894   4.2244   4.4219   4.4974   4.5293   4.8320   4.9101

     occupation numbers 
     1.0000   1.0000   1.0000   1.0000   1.0000   1.0000   1.0000   1.0000
     1.0000   1.0000   1.0000   1.0000   1.0000   1.0000   1.0000   1.0000
     1.0000   1.0000   1.0000   1.0000   1.0000   1.0000   1.0000   1.0000
     1.0000   1.0000   1.0000   1.0000   1.0000   1.0000   1.0000   1.0000
     1.0000   1.0005   1.0061   1.0099   1.0167   1.0436   1.0803   1.0809
     0.9916   0.9803   0.6528   0.6518   0.5815   0.3066   0.0975   0.0000
     0.0000   0.0000   0.0000   0.0000   0.0000   0.0000   0.0000   0.0000
     0.0000   0.0000   0.0000   0.0000   0.0000   0.0000   0.0000   0.0000
     0.0000   0.0000   0.0000   0.0000   0.0000   0.0000   0.0000   0.0000
     0.0000   0.0000   0.0000   0.0000   0.0000   0.0000   0.0000   0.0000

     the Fermi energy is    -6.2294 ev

!    total energy              =    -735.33792857 Ry
     Harris-Foulkes estimate   =    -744.82306689 Ry
     estimated scf accuracy    <          4.0E-09 Ry

     The total energy is the sum of the following terms:

     one-electron contribution =   -3942.97919700 Ry
     hartree contribution      =    2003.64742771 Ry
     xc contribution           =    -378.69639344 Ry
     ewald contribution        =    1573.20467954 Ry
     smearing contrib. (-TS)   =       0.00041631 Ry
     electrostatic embedding   =       0.20675244 Ry
     electrolyte free energy   =      -0.00513785 Ry
     correction to one-el term =       9.28352373 Ry

     the Fermi energy shift due to the parabolic pbc-correction is    -0.4600 ev

     convergence has been achieved in  24 iterations

     negative rho (up, down):  1.428E-04 0.000E+00
     The global environment contribution to forces
     atom    1 type  1   force =    -0.00333458   -0.00301604    0.02023567
     atom    2 type  1   force =     0.00334453   -0.00302848    0.02032163
     atom    3 type  1   force =    -0.00011694    0.00163089   -0.00131292
     atom    4 type  1   force =     0.00007013    0.00410488   -0.00435696
     atom    5 type  1   force =    -0.00053929    0.00865718   -0.24806778
     atom    6 type  1   force =     0.00044647    0.00977828   -0.23547700
     atom    7 type  1   force =    -0.00992183   -0.00811682   -0.25925110
     atom    8 type  1   force =     0.00995915   -0.00815959   -0.25994720
     atom    9 type  2   force =     0.00004883    0.00506828   -0.05000731
     atom   10 type  3   force =     0.00000038    0.00435385   -0.09290078
 

     Forces acting on atoms (cartesian axes, Ry/au):

     atom    1 type  1   force =     0.00030548    0.01376870    0.02662539
     atom    2 type  1   force =     0.00074487    0.01405089    0.02732988
     atom    3 type  1   force =    -0.00182193    0.01229541   -0.01020086
     atom    4 type  1   force =     0.00082296    0.00770687    0.03866965
     atom    5 type  1   force =    -0.00152103   -0.01437198   -0.04489344
     atom    6 type  1   force =     0.00045716   -0.02007223   -0.02665581
     atom    7 type  1   force =     0.01750285   -0.00548377   -0.04235135
     atom    8 type  1   force =    -0.01643233   -0.00512764   -0.04187583
     atom    9 type  2   force =    -0.00004806   -0.00402940    0.06863373
     atom   10 type  3   force =    -0.00000998    0.00126315    0.00471864
     The non-local contrib.  to forces
     atom    1 type  1   force =    -0.02753185   -0.00147635   -0.10149055
     atom    2 type  1   force =     0.02764211   -0.00131317   -0.10193472
     atom    3 type  1   force =     0.00098740    0.00406961   -0.15488057
     atom    4 type  1   force =    -0.00079413   -0.01710432    0.50729181
     atom    5 type  1   force =     0.00060018    0.02553026    0.05871310
     atom    6 type  1   force =    -0.00090174   -0.01820931    0.08832335
     atom    7 type  1   force =     0.01948987   -0.00388090    0.05024641
     atom    8 type  1   force =    -0.01938209   -0.00355806    0.04906971
     atom    9 type  2   force =    -0.00007945   -0.00736384    0.57030458
     atom   10 type  3   force =     0.00018179    0.03860847   -2.95615817
     The ionic contribution  to forces
     atom    1 type  1   force =     0.50324609   -0.09020628   30.03736972
     atom    2 type  1   force =    -0.49292694   -0.08303178   30.06216876
     atom    3 type  1   force =    -0.07802400    0.12039865   29.68099553
     atom    4 type  1   force =     0.05586768    0.10046245   29.12582959
     atom    5 type  1   force =    -0.06942211   -0.08855591  -48.10896481
     atom    6 type  1   force =     0.05843526    0.13450123  -45.70999247
     atom    7 type  1   force =     0.08482129   -0.01166389  -46.71013044
     atom    8 type  1   force =    -0.07063256   -0.00445817  -46.68526027
     atom    9 type  2   force =     0.00636806    0.05296760   19.96835427
     atom   10 type  3   force =     0.00226724   -0.13041391   48.33963012
     The local contribution  to forces
     atom    1 type  1   force =    -0.47478811    0.11196276  -29.91339959
     atom    2 type  1   force =     0.46554372    0.10483463  -29.93731078
     atom    3 type  1   force =     0.07487771   -0.11016455  -29.52511592
     atom    4 type  1   force =    -0.05409655   -0.07609124  -29.65240293
     atom    5 type  1   force =     0.06733376    0.03247404   48.24566827
     atom    6 type  1   force =    -0.05719061   -0.14175219   45.82056319
     atom    7 type  1   force =    -0.08422509    0.01392550   46.86567383
     atom    8 type  1   force =     0.07112116    0.00676333   46.84297379
     atom    9 type  2   force =    -0.00640892   -0.05468439  -20.41293911
     atom   10 type  3   force =    -0.00248230    0.08873296  -45.27878472
     The core correction contribution to forces
     atom    1 type  1   force =     0.00265138   -0.00348712   -0.00900931
     atom    2 type  1   force =    -0.00283967   -0.00339995   -0.00883949
     atom    3 type  1   force =     0.00044074   -0.00362433   -0.00285954
     atom    4 type  1   force =    -0.00025517   -0.00365110    0.06939484
     atom    5 type  1   force =     0.00049503    0.00754142    0.01483058
     atom    6 type  1   force =    -0.00036631   -0.00436314    0.01703132
     atom    7 type  1   force =     0.00728966    0.00425265    0.01816018
     atom    8 type  1   force =    -0.00749459    0.00428592    0.01833911
     atom    9 type  2   force =     0.00000000    0.00000000    0.00000000
     atom   10 type  3   force =     0.00000000    0.00000000    0.00000000
     The Hubbard contrib.    to forces
     atom    1 type  1   force =     0.00000000    0.00000000    0.00000000
     atom    2 type  1   force =     0.00000000    0.00000000    0.00000000
     atom    3 type  1   force =     0.00000000    0.00000000    0.00000000
     atom    4 type  1   force =     0.00000000    0.00000000    0.00000000
     atom    5 type  1   force =     0.00000000    0.00000000    0.00000000
     atom    6 type  1   force =     0.00000000    0.00000000    0.00000000
     atom    7 type  1   force =     0.00000000    0.00000000    0.00000000
     atom    8 type  1   force =     0.00000000    0.00000000    0.00000000
     atom    9 type  2   force =     0.00000000    0.00000000    0.00000000
     atom   10 type  3   force =     0.00000000    0.00000000    0.00000000
     The SCF correction term to forces
     atom    1 type  1   force =     0.00004017    0.00000395   -0.00001047
     atom    2 type  1   force =    -0.00004127    0.00000186   -0.00000546
     atom    3 type  1   force =    -0.00000922   -0.00000265    0.00004263
     atom    4 type  1   force =     0.00000862   -0.00000159   -0.00001661
     atom    5 type  1   force =    -0.00001098   -0.00000676   -0.00000273
     atom    6 type  1   force =     0.00001172   -0.00001489   -0.00003412
     atom    7 type  1   force =     0.00002656    0.00001192    0.00001984
     atom    8 type  1   force =    -0.00002578    0.00001115    0.00001910
     atom    9 type  2   force =     0.00000103   -0.00000483   -0.00000863
     atom   10 type  3   force =     0.00000052   -0.00000599    0.00000225

     Total force =     0.126198     Total SCF correction =     0.000100

     Writing output data file PtCO_linearizedpb.save
 
     init_run     :      5.79s CPU      5.96s WALL (       1 calls)
     electrons    :    125.52s CPU    134.90s WALL (       1 calls)
     forces       :      3.60s CPU      3.72s WALL (       1 calls)

     Called by init_run:
     wfcinit      :      0.42s CPU      0.43s WALL (       1 calls)
     wfcinit:atom :      0.00s CPU      0.01s WALL (       1 calls)
     wfcinit:wfcr :      0.40s CPU      0.40s WALL (       1 calls)
     potinit      :      1.46s CPU      1.47s WALL (       1 calls)

     Called by electrons:
     c_bands      :     27.86s CPU     28.35s WALL (      24 calls)
     sum_band     :     18.98s CPU     20.80s WALL (      24 calls)
     v_of_rho     :      6.05s CPU      6.26s WALL (      25 calls)
     v_h          :      9.34s CPU     10.44s WALL (     948 calls)
     v_xc         :      6.02s CPU      6.22s WALL (      26 calls)
     newd         :     10.35s CPU     12.37s WALL (      25 calls)
     mix_rho      :      0.90s CPU      0.90s WALL (      24 calls)

     Called by c_bands:
     init_us_2    :      0.40s CPU      0.39s WALL (      49 calls)
     cegterg      :     26.05s CPU     26.54s WALL (      24 calls)

     Called by sum_band:
     sum_band:bec :      0.00s CPU      0.00s WALL (      24 calls)
     addusdens    :     13.97s CPU     15.75s WALL (      24 calls)

     Called by *egterg:
     h_psi        :     17.04s CPU     17.11s WALL (     102 calls)
     s_psi        :      1.62s CPU      1.60s WALL (     102 calls)
     g_psi        :      0.19s CPU      0.20s WALL (      77 calls)
     cdiaghg      :      0.90s CPU      0.91s WALL (     101 calls)
     cegterg:over :      2.26s CPU      2.27s WALL (      77 calls)
     cegterg:upda :      2.01s CPU      2.00s WALL (      77 calls)
     cegterg:last :      0.97s CPU      0.97s WALL (      24 calls)

     Called by h_psi:
     h_psi:pot    :     16.88s CPU     16.90s WALL (     102 calls)
     h_psi:calbec :      1.45s CPU      1.43s WALL (     102 calls)
     vloc_psi     :     13.83s CPU     13.88s WALL (     102 calls)
     add_vuspsi   :      1.60s CPU      1.59s WALL (     102 calls)

     General routines
     calbec       :      2.13s CPU      2.13s WALL (     130 calls)
     fft          :     17.07s CPU     18.83s WALL (    2576 calls)
     ffts         :      0.12s CPU      0.10s WALL (      49 calls)
     fftw         :     13.00s CPU     13.29s WALL (   10512 calls)
     interpolate  :      0.54s CPU      0.56s WALL (      49 calls)
     davcio       :      0.00s CPU      0.01s WALL (       1 calls)
 
     Parallel routines
     fft_scatter  :      4.18s CPU      4.87s WALL (   13137 calls)
 
     Environ routines
     calc_eelect  :      0.03s CPU      0.03s WALL (      48 calls)
     calc_velect  :     55.01s CPU     59.80s WALL (      42 calls)
     dielectric   :      0.48s CPU      0.48s WALL (      27 calls)
     electrolyte  :      0.00s CPU      0.00s WALL (       2 calls)
     calc_felect  :      0.09s CPU      0.09s WALL (       1 calls)
 
     PWSCF        :  2m15.05s CPU     2m24.75s WALL

 
   This run was terminated on:  13:21: 1  30Jan2018            

=------------------------------------------------------------------------------=
   JOB DONE.
=------------------------------------------------------------------------------=
