
     Program PWSCF v.6.1 (svn rev. 13369) starts on 29Jan2018 at 16:44:44 

     This program is part of the open-source Quantum ESPRESSO suite
     for quantum simulation of materials; please cite
         "P. Giannozzi et al., J. Phys.:Condens. Matter 21 395502 (2009);
          URL http://www.quantum-espresso.org", 
     in publications or presentations arising from this work. More details at
     http://www.quantum-espresso.org/quote

     Parallel version (MPI), running on     8 processors
     R & G space division:  proc/nbgrp/npool/nimage =       8
     Waiting for input...
     Reading input from standard input

     Current dimensions of program PWSCF are:
     Max number of different atomic species (ntypx) = 10
     Max number of k-points (npk) =  40000
     Max angular momentum in pseudopotentials (lmaxx) =  3
               file C.pbe-rrkjus.UPF: wavefunction(s)  2S 2P renormalized
               file O.pbe-rrkjus.UPF: wavefunction(s)  2S renormalized

     Subspace diagonalization in iterative solution of the eigenvalue problem:
     a serial algorithm will be used

 
     Parallelization info
     --------------------
     sticks:   dense  smooth     PW     G-vecs:    dense   smooth      PW
     Min         275     137     33                41359    14615    1815
     Max         276     138     34                41372    14630    1828
     Sum        2205    1099    269               330909   116965   14571
 


     bravais-lattice index     =            8
     lattice parameter (alat)  =      10.6881  a.u.
     unit-cell volume          =    4181.1215 (a.u.)^3
     number of atoms/cell      =           10
     number of atomic types    =            3
     number of electrons       =        89.00
     number of Kohn-Sham states=           80
     kinetic-energy cutoff     =      35.0000  Ry
     charge density cutoff     =     280.0000  Ry
     convergence threshold     =      5.0E-09
     mixing beta               =       0.2000
     number of iterations used =            8  plain     mixing
     Exchange-correlation      =  SLA  PW   PBE  PBE ( 1  4  3  4 0 0)
 

     Environ Module
     ==============

     Plese cite
         O. Andreussi, I. Dabo and N. Marzari, J. Chem. Phys. 136, 064102 (2012)         
     in publications or presentations arising from this work.

     compensation onset threshold      =               0.1000E+01 
     static permittivity               =                    80.00 
     epsilon calculation mode          =                     full 

     Electrostatic Setup
     -------------------
     electrostatic problem to solve    = linmodpb                 
     numerical solver adopted          = cg                       
     type of auxiliary density adopted = none                     
     type of core tool for poisson     = fft                      
     type of core tool for s(r) deriv  = analytic                 



     celldm(1)=  10.688100  celldm(2)=   0.866025  celldm(3)=   3.954220
     celldm(4)=   0.000000  celldm(5)=   0.000000  celldm(6)=   0.000000

     crystal axes: (cart. coord. in units of alat)
               a(1) = (   1.000000   0.000000   0.000000 )  
               a(2) = (   0.000000   0.866025   0.000000 )  
               a(3) = (   0.000000   0.000000   3.954220 )  

     reciprocal axes: (cart. coord. in units 2 pi/alat)
               b(1) = (  1.000000  0.000000  0.000000 )  
               b(2) = (  0.000000  1.154701  0.000000 )  
               b(3) = (  0.000000  0.000000  0.252894 )  


     PseudoPot. # 1 for Pt read from file:
     /home/fnattino/Programs/qe-6.1/pseudo/Pt.pbe-nd-rrkjus.UPF
     MD5 check sum: 1413c21c79e416b56dc03f2d0e22670c
     Pseudo is Ultrasoft + core correction, Zval = 10.0
     Generated by new atomic code, or converted to UPF format
     Using radial grid of 1547 points,  3 beta functions with: 
                l(1) =   1
                l(2) =   2
                l(3) =   2
     Q(r) pseudized with 0 coefficients 


     PseudoPot. # 2 for C  read from file:
     /home/fnattino/Programs/qe-6.1/pseudo/C.pbe-rrkjus.UPF
     MD5 check sum: 00fb224312de0c5b6853bd333518df6f
     Pseudo is Ultrasoft, Zval =  4.0
     Generated by new atomic code, or converted to UPF format
     Using radial grid of  627 points,  4 beta functions with: 
                l(1) =   0
                l(2) =   0
                l(3) =   1
                l(4) =   1
     Q(r) pseudized with 0 coefficients 


     PseudoPot. # 3 for O  read from file:
     /home/fnattino/Programs/qe-6.1/pseudo/O.pbe-rrkjus.UPF
     MD5 check sum: 390ba29e75625707450f3bd3f0eb6be9
     Pseudo is Ultrasoft, Zval =  6.0
     Generated by new atomic code, or converted to UPF format
     Using radial grid of 1269 points,  4 beta functions with: 
                l(1) =   0
                l(2) =   0
                l(3) =   1
                l(4) =   1
     Q(r) pseudized with 0 coefficients 


     atomic species   valence    mass     pseudopotential
        Pt            10.00     1.00000     Pt( 1.00)
        C              4.00     1.00000     C ( 1.00)
        O              6.00     1.00000     O ( 1.00)

     No symmetry found


                                    s                        frac. trans.

      isym =  1     identity                                     

 cryst.   s( 1) = (     1          0          0      )
                  (     0          1          0      )
                  (     0          0          1      )

 cart.    s( 1) = (  1.0000000  0.0000000  0.0000000 )
                  (  0.0000000  1.0000000  0.0000000 )
                  (  0.0000000  0.0000000  1.0000000 )


     point group C_1 (1)    
     there are  1 classes
     the character table:

       E    
A      1.00

     the symmetry operations in each class and the name of the first element:

     E        1
          identity                                               

   Cartesian axes

     site n.     atom                  positions (alat units)
         1           Pt  tau(   1) = (   0.7542339   0.0091745   0.8413229  )
         2           Pt  tau(   2) = (   0.2441023   0.0091745   0.8413226  )
         3           Pt  tau(   3) = (   0.0000034   0.4416918   0.8391348  )
         4           Pt  tau(   4) = (   0.4991682   0.4417635   0.8776299  )
         5           Pt  tau(   5) = (   0.0000038   0.7300598   0.4308181  )
         6           Pt  tau(   6) = (   0.4991683   0.7202168   0.4447460  )
         7           Pt  tau(   7) = (   0.2524172   0.2949237   0.4386572  )
         8           Pt  tau(   8) = (   0.7459196   0.2949237   0.4386575  )
         9           C   tau(   9) = (   0.4991611   0.4347567   1.2070461  )
        10           O   tau(  10) = (   0.4991542   0.4322212   1.4109013  )

   Crystallographic axes

     site n.     atom                  positions (cryst. coord.)
         1           Pt  tau(   1) = (  0.7542339  0.0105938  0.2127658  )
         2           Pt  tau(   2) = (  0.2441023  0.0105938  0.2127658  )
         3           Pt  tau(   3) = (  0.0000034  0.5100220  0.2122125  )
         4           Pt  tau(   4) = (  0.4991682  0.5101048  0.2219477  )
         5           Pt  tau(   5) = (  0.0000038  0.8430008  0.1089515  )
         6           Pt  tau(   6) = (  0.4991683  0.8316351  0.1124738  )
         7           Pt  tau(   7) = (  0.2524172  0.3405487  0.1109339  )
         8           Pt  tau(   8) = (  0.7459196  0.3405488  0.1109340  )
         9           C   tau(   9) = (  0.4991611  0.5020141  0.3052552  )
        10           O   tau(  10) = (  0.4991542  0.4990863  0.3568090  )

     number of k points=     1  Marzari-Vanderbilt smearing, width (Ry)=  0.0300
                       cart. coord. in units 2pi/alat
        k(    1) = (   0.0000000   0.0000000   0.0000000), wk =   2.0000000

                       cryst. coord.
        k(    1) = (   0.0000000   0.0000000   0.0000000), wk =   2.0000000

     Dense  grid:   330909 G-vectors     FFT dimensions: (  60,  50, 225)

     Smooth grid:   116965 G-vectors     FFT dimensions: (  45,  36, 160)

     Estimated max dynamical RAM per process >      50.29MB

     Estimated total allocated dynamical RAM >     402.32MB

     Check: negative/imaginary core charge=   -0.000038    0.000000

     Initial potential from superposition of free atoms

     starting charge   89.99875, renormalised to   89.00000

     negative rho (up, down):  7.106E-05 0.000E+00
     Starting wfc are   56 randomized atomic wfcs +   24 random wfc

     total cpu time spent up to now is       30.7 secs

     per-process dynamical memory:    92.7 Mb

     Self-consistent Calculation

     iteration #  1     ecut=    35.00 Ry     beta=0.20
     Davidson diagonalization with overlap
     ethr =  1.00E-02,  avg # of iterations =  7.0

     negative rho (up, down):  7.850E-05 0.000E+00

     total cpu time spent up to now is       43.5 secs

     total energy              =    -735.16697307 Ry
     Harris-Foulkes estimate   =    -735.95163640 Ry
     estimated scf accuracy    <       2.31974039 Ry
     electrostatic embedding   =       0.03381190 Ry
     electrolyte free energy   =       0.00552873 Ry
     correction to one-el term =       0.00000000 Ry

     iteration #  2     ecut=    35.00 Ry     beta=0.20
     Davidson diagonalization with overlap
     ethr =  2.61E-03,  avg # of iterations =  4.0

     negative rho (up, down):  1.385E-04 0.000E+00

     total cpu time spent up to now is       55.9 secs

     total energy              =    -734.88240913 Ry
     Harris-Foulkes estimate   =    -736.43425803 Ry
     estimated scf accuracy    <      17.12132119 Ry
     electrostatic embedding   =       0.03381190 Ry
     electrolyte free energy   =       0.00552873 Ry
     correction to one-el term =       0.00000000 Ry

     iteration #  3     ecut=    35.00 Ry     beta=0.20
     Davidson diagonalization with overlap
     ethr =  2.61E-03,  avg # of iterations =  2.0

     negative rho (up, down):  1.094E-04 0.000E+00

     add environment contribution to local potential
     polarization accuracy = 4.6E-13, # of iterations =  39

     total cpu time spent up to now is       76.1 secs

     total energy              =    -735.52725171 Ry
     Harris-Foulkes estimate   =    -735.65117298 Ry
     estimated scf accuracy    <       0.52429887 Ry
     electrostatic embedding   =       0.03381190 Ry
     electrolyte free energy   =       0.00552873 Ry
     correction to one-el term =       0.00000000 Ry

     iteration #  4     ecut=    35.00 Ry     beta=0.20
     Davidson diagonalization with overlap
     ethr =  5.89E-04,  avg # of iterations =  8.0

     negative rho (up, down):  1.090E-04 0.000E+00

     add environment contribution to local potential
     polarization accuracy = 2.9E-13, # of iterations =  40

     total cpu time spent up to now is       96.7 secs

     total energy              =    -735.33354050 Ry
     Harris-Foulkes estimate   =    -749.68975449 Ry
     estimated scf accuracy    <       0.23174060 Ry
     electrostatic embedding   =       0.25273721 Ry
     electrolyte free energy   =      -0.00761788 Ry
     correction to one-el term =      14.05717664 Ry

     iteration #  5     ecut=    35.00 Ry     beta=0.20
     Davidson diagonalization with overlap
     ethr =  2.60E-04,  avg # of iterations =  5.0

     negative rho (up, down):  1.276E-04 0.000E+00

     add environment contribution to local potential
     polarization accuracy = 3.4E-13, # of iterations =  40

     total cpu time spent up to now is      144.2 secs

     total energy              =    -735.33676730 Ry
     Harris-Foulkes estimate   =    -748.04669518 Ry
     estimated scf accuracy    <       0.04621049 Ry
     electrostatic embedding   =       0.23878270 Ry
     electrolyte free energy   =      -0.00688180 Ry
     correction to one-el term =      12.46534931 Ry

     iteration #  6     ecut=    35.00 Ry     beta=0.20
     Davidson diagonalization with overlap
     ethr =  5.19E-05,  avg # of iterations =  6.0

     negative rho (up, down):  1.535E-04 0.000E+00

     add environment contribution to local potential
     polarization accuracy = 2.6E-13, # of iterations =  41

     total cpu time spent up to now is      193.8 secs

     total energy              =    -735.33556640 Ry
     Harris-Foulkes estimate   =    -746.78585858 Ry
     estimated scf accuracy    <       0.02927877 Ry
     electrostatic embedding   =       0.22841447 Ry
     electrolyte free energy   =      -0.00625067 Ry
     correction to one-el term =      11.22205984 Ry

     iteration #  7     ecut=    35.00 Ry     beta=0.20
     Davidson diagonalization with overlap
     ethr =  3.29E-05,  avg # of iterations =  4.0

     negative rho (up, down):  1.594E-04 0.000E+00

     add environment contribution to local potential
     polarization accuracy = 3.5E-13, # of iterations =  41

     total cpu time spent up to now is      243.0 secs

     total energy              =    -735.33669894 Ry
     Harris-Foulkes estimate   =    -745.86838387 Ry
     estimated scf accuracy    <       0.00926319 Ry
     electrostatic embedding   =       0.22090377 Ry
     electrolyte free energy   =      -0.00575039 Ry
     correction to one-el term =      10.31482440 Ry

     iteration #  8     ecut=    35.00 Ry     beta=0.20
     Davidson diagonalization with overlap
     ethr =  1.04E-05,  avg # of iterations =  5.0

     negative rho (up, down):  1.587E-04 0.000E+00

     add environment contribution to local potential
     polarization accuracy = 3.3E-13, # of iterations =  42

     total cpu time spent up to now is      291.4 secs

     total energy              =    -735.33711380 Ry
     Harris-Foulkes estimate   =    -745.47727988 Ry
     estimated scf accuracy    <       0.00289016 Ry
     electrostatic embedding   =       0.21748714 Ry
     electrolyte free energy   =      -0.00551447 Ry
     correction to one-el term =       9.92746117 Ry

     iteration #  9     ecut=    35.00 Ry     beta=0.20
     Davidson diagonalization with overlap
     ethr =  3.25E-06,  avg # of iterations =  4.0

     negative rho (up, down):  1.545E-04 0.000E+00

     add environment contribution to local potential
     polarization accuracy = 3.8E-13, # of iterations =  42

     total cpu time spent up to now is      341.7 secs

     total energy              =    -735.33743714 Ry
     Harris-Foulkes estimate   =    -745.28005288 Ry
     estimated scf accuracy    <       0.00333420 Ry
     electrostatic embedding   =       0.21553883 Ry
     electrolyte free energy   =      -0.00538185 Ry
     correction to one-el term =       9.73210043 Ry

     iteration # 10     ecut=    35.00 Ry     beta=0.20
     Davidson diagonalization with overlap
     ethr =  3.25E-06,  avg # of iterations =  1.0

     negative rho (up, down):  1.519E-04 0.000E+00

     add environment contribution to local potential
     polarization accuracy = 3.9E-13, # of iterations =  42

     total cpu time spent up to now is      391.6 secs

     total energy              =    -735.33742076 Ry
     Harris-Foulkes estimate   =    -745.16446180 Ry
     estimated scf accuracy    <       0.00359588 Ry
     electrostatic embedding   =       0.21409779 Ry
     electrolyte free energy   =      -0.00531731 Ry
     correction to one-el term =       9.61779281 Ry

     iteration # 11     ecut=    35.00 Ry     beta=0.20
     Davidson diagonalization with overlap
     ethr =  3.25E-06,  avg # of iterations =  1.0

     negative rho (up, down):  1.516E-04 0.000E+00

     add environment contribution to local potential
     polarization accuracy = 2.0E-13, # of iterations =  43

     total cpu time spent up to now is      437.8 secs

     total energy              =    -735.33722575 Ry
     Harris-Foulkes estimate   =    -745.03937534 Ry
     estimated scf accuracy    <       0.00244038 Ry
     electrostatic embedding   =       0.21233013 Ry
     electrolyte free energy   =      -0.00525777 Ry
     correction to one-el term =       9.49439172 Ry

     iteration # 12     ecut=    35.00 Ry     beta=0.20
     Davidson diagonalization with overlap
     ethr =  2.74E-06,  avg # of iterations =  6.0

     negative rho (up, down):  1.473E-04 0.000E+00

     add environment contribution to local potential
     polarization accuracy = 4.9E-13, # of iterations =  42

     total cpu time spent up to now is      458.3 secs

     total energy              =    -735.33771324 Ry
     Harris-Foulkes estimate   =    -744.82043043 Ry
     estimated scf accuracy    <       0.00061471 Ry
     electrostatic embedding   =       0.20937214 Ry
     electrolyte free energy   =      -0.00514762 Ry
     correction to one-el term =       9.27824368 Ry

     iteration # 13     ecut=    35.00 Ry     beta=0.20
     Davidson diagonalization with overlap
     ethr =  6.91E-07,  avg # of iterations =  2.0

     negative rho (up, down):  1.447E-04 0.000E+00

     add environment contribution to local potential
     polarization accuracy = 2.2E-13, # of iterations =  43

     total cpu time spent up to now is      478.5 secs

     total energy              =    -735.33778097 Ry
     Harris-Foulkes estimate   =    -744.83323687 Ry
     estimated scf accuracy    <       0.00039663 Ry
     electrostatic embedding   =       0.20872804 Ry
     electrolyte free energy   =      -0.00513732 Ry
     correction to one-el term =       9.29173497 Ry

     iteration # 14     ecut=    35.00 Ry     beta=0.20
     Davidson diagonalization with overlap
     ethr =  4.46E-07,  avg # of iterations =  1.0

     negative rho (up, down):  1.434E-04 0.000E+00

     add environment contribution to local potential
     polarization accuracy = 2.3E-13, # of iterations =  43

     total cpu time spent up to now is      498.7 secs

     total energy              =    -735.33786276 Ry
     Harris-Foulkes estimate   =    -744.80792569 Ry
     estimated scf accuracy    <       0.00011696 Ry
     electrostatic embedding   =       0.20778679 Ry
     electrolyte free energy   =      -0.00512473 Ry
     correction to one-el term =       9.26734594 Ry

     iteration # 15     ecut=    35.00 Ry     beta=0.20
     Davidson diagonalization with overlap
     ethr =  1.31E-07,  avg # of iterations =  2.0

     negative rho (up, down):  1.423E-04 0.000E+00

     add environment contribution to local potential
     polarization accuracy = 4.1E-13, # of iterations =  42

     total cpu time spent up to now is      518.9 secs

     total energy              =    -735.33791980 Ry
     Harris-Foulkes estimate   =    -744.77566441 Ry
     estimated scf accuracy    <       0.00001287 Ry
     electrostatic embedding   =       0.20682389 Ry
     electrolyte free energy   =      -0.00511174 Ry
     correction to one-el term =       9.23602830 Ry

     iteration # 16     ecut=    35.00 Ry     beta=0.20
     Davidson diagonalization with overlap
     ethr =  1.45E-08,  avg # of iterations =  2.0

     negative rho (up, down):  1.419E-04 0.000E+00

     add environment contribution to local potential
     polarization accuracy = 2.2E-13, # of iterations =  43

     total cpu time spent up to now is      539.2 secs

     total energy              =    -735.33790800 Ry
     Harris-Foulkes estimate   =    -744.80157122 Ry
     estimated scf accuracy    <       0.00003060 Ry
     electrostatic embedding   =       0.20724217 Ry
     electrolyte free energy   =      -0.00512821 Ry
     correction to one-el term =       9.26153367 Ry

     iteration # 17     ecut=    35.00 Ry     beta=0.20
     Davidson diagonalization with overlap
     ethr =  1.45E-08,  avg # of iterations =  2.0

     negative rho (up, down):  1.417E-04 0.000E+00

     add environment contribution to local potential
     polarization accuracy = 4.5E-13, # of iterations =  42

     total cpu time spent up to now is      559.5 secs

     total energy              =    -735.33792492 Ry
     Harris-Foulkes estimate   =    -744.79726559 Ry
     estimated scf accuracy    <       0.00000493 Ry
     electrostatic embedding   =       0.20680835 Ry
     electrolyte free energy   =      -0.00512917 Ry
     correction to one-el term =       9.25765937 Ry

     iteration # 18     ecut=    35.00 Ry     beta=0.20
     Davidson diagonalization with overlap
     ethr =  5.53E-09,  avg # of iterations =  2.0

     negative rho (up, down):  1.417E-04 0.000E+00

     add environment contribution to local potential
     polarization accuracy = 3.3E-13, # of iterations =  42

     total cpu time spent up to now is      579.7 secs

     total energy              =    -735.33792722 Ry
     Harris-Foulkes estimate   =    -744.80381915 Ry
     estimated scf accuracy    <       0.00000228 Ry
     electrostatic embedding   =       0.20673779 Ry
     electrolyte free energy   =      -0.00513293 Ry
     correction to one-el term =       9.26428600 Ry

     iteration # 19     ecut=    35.00 Ry     beta=0.20
     Davidson diagonalization with overlap
     ethr =  2.56E-09,  avg # of iterations =  2.0

     negative rho (up, down):  1.418E-04 0.000E+00

     add environment contribution to local potential
     polarization accuracy = 3.4E-13, # of iterations =  42

     total cpu time spent up to now is      599.9 secs

     total energy              =    -735.33792893 Ry
     Harris-Foulkes estimate   =    -744.80754793 Ry
     estimated scf accuracy    <       0.00000094 Ry
     electrostatic embedding   =       0.20667347 Ry
     electrolyte free energy   =      -0.00513429 Ry
     correction to one-el term =       9.26807943 Ry

     iteration # 20     ecut=    35.00 Ry     beta=0.20
     Davidson diagonalization with overlap
     ethr =  1.06E-09,  avg # of iterations =  2.0

     negative rho (up, down):  1.420E-04 0.000E+00

     add environment contribution to local potential
     polarization accuracy = 4.0E-13, # of iterations =  42

     total cpu time spent up to now is      620.2 secs

     total energy              =    -735.33792983 Ry
     Harris-Foulkes estimate   =    -744.81147568 Ry
     estimated scf accuracy    <       0.00000022 Ry
     electrostatic embedding   =       0.20666292 Ry
     electrolyte free energy   =      -0.00513552 Ry
     correction to one-el term =       9.27201838 Ry

     iteration # 21     ecut=    35.00 Ry     beta=0.20
     Davidson diagonalization with overlap
     ethr =  2.46E-10,  avg # of iterations =  2.0

     negative rho (up, down):  1.421E-04 0.000E+00

     add environment contribution to local potential
     polarization accuracy = 4.0E-13, # of iterations =  42

     total cpu time spent up to now is      640.5 secs

     total energy              =    -735.33793031 Ry
     Harris-Foulkes estimate   =    -744.81675694 Ry
     estimated scf accuracy    <       0.00000006 Ry
     electrostatic embedding   =       0.20669405 Ry
     electrolyte free energy   =      -0.00513685 Ry
     correction to one-el term =       9.27726944 Ry

     iteration # 22     ecut=    35.00 Ry     beta=0.20
     Davidson diagonalization with overlap
     ethr =  6.99E-11,  avg # of iterations =  2.0

     negative rho (up, down):  1.422E-04 0.000E+00

     add environment contribution to local potential
     polarization accuracy = 4.4E-13, # of iterations =  42

     total cpu time spent up to now is      660.8 secs

     total energy              =    -735.33793031 Ry
     Harris-Foulkes estimate   =    -744.81877837 Ry
     estimated scf accuracy    <       0.00000007 Ry
     electrostatic embedding   =       0.20672773 Ry
     electrolyte free energy   =      -0.00513704 Ry
     correction to one-el term =       9.27925735 Ry

     iteration # 23     ecut=    35.00 Ry     beta=0.20
     Davidson diagonalization with overlap
     ethr =  6.99E-11,  avg # of iterations =  2.0

     negative rho (up, down):  1.423E-04 0.000E+00

     add environment contribution to local potential
     polarization accuracy = 3.9E-13, # of iterations =  42

     total cpu time spent up to now is      681.2 secs

     total energy              =    -735.33793042 Ry
     Harris-Foulkes estimate   =    -744.82130408 Ry
     estimated scf accuracy    <       0.00000001 Ry
     electrostatic embedding   =       0.20674327 Ry
     electrolyte free energy   =      -0.00513739 Ry
     correction to one-el term =       9.28176778 Ry

     iteration # 24     ecut=    35.00 Ry     beta=0.20
     Davidson diagonalization with overlap
     ethr =  1.21E-11,  avg # of iterations =  2.0

     negative rho (up, down):  1.428E-04 0.000E+00

     total cpu time spent up to now is      693.6 secs

     End of self-consistent calculation

          k = 0.0000 0.0000 0.0000 ( 14571 PWs)   bands (ev):

   -29.5830 -16.0963 -14.5005 -13.1490 -12.9946 -12.4619 -12.4516 -12.3541
   -12.1740 -11.3091 -11.1838 -11.0595 -10.8451 -10.8163 -10.7408 -10.6061
    -9.9086  -9.8813  -9.8237  -9.6278  -9.6055  -9.5542  -9.5171  -9.4676
    -9.4489  -9.2686  -9.2410  -9.1117  -9.0281  -8.7902  -8.6997  -7.9224
    -7.8183  -7.5448  -7.3125  -7.2565  -7.1893  -7.0350  -6.8554  -6.7679
    -6.5965  -6.5852  -6.3695  -6.3690  -6.3308  -6.1699  -5.9744  -4.8644
    -4.6400  -4.5586  -3.8909  -3.2682  -3.0928  -2.0743  -1.7912  -1.7468
    -1.1602  -0.9269  -0.4136  -0.2014  -0.0022   0.4929   1.0571   1.3111
     1.6855   2.1048   2.2856   2.4821   2.6458   2.8319   3.5110   3.5542
     3.5899   3.6894   4.2244   4.4219   4.4974   4.5293   4.8319   4.9101

     occupation numbers 
     1.0000   1.0000   1.0000   1.0000   1.0000   1.0000   1.0000   1.0000
     1.0000   1.0000   1.0000   1.0000   1.0000   1.0000   1.0000   1.0000
     1.0000   1.0000   1.0000   1.0000   1.0000   1.0000   1.0000   1.0000
     1.0000   1.0000   1.0000   1.0000   1.0000   1.0000   1.0000   1.0000
     1.0000   1.0005   1.0061   1.0099   1.0167   1.0436   1.0803   1.0809
     0.9916   0.9803   0.6528   0.6518   0.5815   0.3066   0.0975   0.0000
     0.0000   0.0000   0.0000   0.0000   0.0000   0.0000   0.0000   0.0000
     0.0000   0.0000   0.0000   0.0000   0.0000   0.0000   0.0000   0.0000
     0.0000   0.0000   0.0000   0.0000   0.0000   0.0000   0.0000   0.0000
     0.0000   0.0000   0.0000   0.0000   0.0000   0.0000   0.0000   0.0000

     the Fermi energy is    -6.2294 ev

!    total energy              =    -735.33793047 Ry
     Harris-Foulkes estimate   =    -744.82309072 Ry
     estimated scf accuracy    <          3.9E-09 Ry

     The total energy is the sum of the following terms:

     one-electron contribution =   -3942.97923387 Ry
     hartree contribution      =    2003.64744043 Ry
     xc contribution           =    -378.69639310 Ry
     ewald contribution        =    1573.20467954 Ry
     smearing contrib. (-TS)   =       0.00041629 Ry
     electrostatic embedding   =       0.20675275 Ry
     electrolyte free energy   =      -0.00513786 Ry
     correction to one-el term =       9.28354535 Ry

     the Fermi energy shift due to the environment is    -0.4600 ev

     convergence has been achieved in  24 iterations

     negative rho (up, down):  1.428E-04 0.000E+00
     The global environment contribution to forces
     atom    1 type  1   force =    -0.00333425   -0.00301606    0.02023714
     atom    2 type  1   force =     0.00334419   -0.00302854    0.02032303
     atom    3 type  1   force =    -0.00011693    0.00163093   -0.00131133
     atom    4 type  1   force =     0.00007012    0.00410492   -0.00435586
     atom    5 type  1   force =    -0.00053940    0.00865698   -0.24806645
     atom    6 type  1   force =     0.00044656    0.00977804   -0.23547561
     atom    7 type  1   force =    -0.00992193   -0.00811660   -0.25924958
     atom    8 type  1   force =     0.00995929   -0.00815938   -0.25994586
     atom    9 type  2   force =     0.00004880    0.00506834   -0.05000699
     atom   10 type  3   force =     0.00000037    0.00435391   -0.09290002
 

     Forces acting on atoms (cartesian axes, Ry/au):

     atom    1 type  1   force =     0.00030528    0.01376870    0.02662527
     atom    2 type  1   force =     0.00074497    0.01405084    0.02733048
     atom    3 type  1   force =    -0.00182213    0.01229568   -0.01020073
     atom    4 type  1   force =     0.00082285    0.00770703    0.03867024
     atom    5 type  1   force =    -0.00152126   -0.01437204   -0.04489428
     atom    6 type  1   force =     0.00045771   -0.02007191   -0.02665575
     atom    7 type  1   force =     0.01750259   -0.00548430   -0.04235119
     atom    8 type  1   force =    -0.01643197   -0.00512802   -0.04187616
     atom    9 type  2   force =    -0.00004809   -0.00402930    0.06863397
     atom   10 type  3   force =    -0.00000995    0.00126332    0.00471816
     The non-local contrib.  to forces
     atom    1 type  1   force =    -0.02753185   -0.00147641   -0.10149024
     atom    2 type  1   force =     0.02764194   -0.00131333   -0.10193428
     atom    3 type  1   force =     0.00098727    0.00406964   -0.15488020
     atom    4 type  1   force =    -0.00079429   -0.01710432    0.50729226
     atom    5 type  1   force =     0.00059994    0.02553016    0.05871248
     atom    6 type  1   force =    -0.00090143   -0.01820921    0.08832326
     atom    7 type  1   force =     0.01948977   -0.00388104    0.05024646
     atom    8 type  1   force =    -0.01938187   -0.00355820    0.04906963
     atom    9 type  2   force =    -0.00007942   -0.00736385    0.57030458
     atom   10 type  3   force =     0.00018180    0.03860840   -2.95615801
     The ionic contribution  to forces
     atom    1 type  1   force =     0.50324609   -0.09020628   30.03736972
     atom    2 type  1   force =    -0.49292694   -0.08303178   30.06216876
     atom    3 type  1   force =    -0.07802400    0.12039865   29.68099553
     atom    4 type  1   force =     0.05586768    0.10046245   29.12582959
     atom    5 type  1   force =    -0.06942211   -0.08855591  -48.10896481
     atom    6 type  1   force =     0.05843526    0.13450123  -45.70999247
     atom    7 type  1   force =     0.08482129   -0.01166389  -46.71013044
     atom    8 type  1   force =    -0.07063256   -0.00445817  -46.68526027
     atom    9 type  2   force =     0.00636806    0.05296760   19.96835427
     atom   10 type  3   force =     0.00226724   -0.13041391   48.33963012
     The local contribution  to forces
     atom    1 type  1   force =    -0.47478845    0.11196253  -29.91340129
     atom    2 type  1   force =     0.46554404    0.10483463  -29.93731345
     atom    3 type  1   force =     0.07487788   -0.11016453  -29.52511780
     atom    4 type  1   force =    -0.05409661   -0.07609098  -29.65240557
     atom    5 type  1   force =     0.06733507    0.03247371   48.24566732
     atom    6 type  1   force =    -0.05719185   -0.14175244   45.82056123
     atom    7 type  1   force =    -0.08422392    0.01392574   46.86567185
     atom    8 type  1   force =     0.07111985    0.00676353   46.84297267
     atom    9 type  2   force =    -0.00640891   -0.05468443  -20.41293852
     atom   10 type  3   force =    -0.00248226    0.08873315  -45.27878576
     The core correction contribution to forces
     atom    1 type  1   force =     0.00265139   -0.00348711   -0.00900937
     atom    2 type  1   force =    -0.00283971   -0.00339994   -0.00883962
     atom    3 type  1   force =     0.00044075   -0.00362434   -0.00285959
     atom    4 type  1   force =    -0.00025519   -0.00365113    0.06939479
     atom    5 type  1   force =     0.00049504    0.00754148    0.01483068
     atom    6 type  1   force =    -0.00036633   -0.00436316    0.01703124
     atom    7 type  1   force =     0.00728969    0.00425269    0.01816007
     atom    8 type  1   force =    -0.00749463    0.00428596    0.01833915
     atom    9 type  2   force =     0.00000000    0.00000000    0.00000000
     atom   10 type  3   force =     0.00000000    0.00000000    0.00000000
     The Hubbard contrib.    to forces
     atom    1 type  1   force =     0.00000000    0.00000000    0.00000000
     atom    2 type  1   force =     0.00000000    0.00000000    0.00000000
     atom    3 type  1   force =     0.00000000    0.00000000    0.00000000
     atom    4 type  1   force =     0.00000000    0.00000000    0.00000000
     atom    5 type  1   force =     0.00000000    0.00000000    0.00000000
     atom    6 type  1   force =     0.00000000    0.00000000    0.00000000
     atom    7 type  1   force =     0.00000000    0.00000000    0.00000000
     atom    8 type  1   force =     0.00000000    0.00000000    0.00000000
     atom    9 type  2   force =     0.00000000    0.00000000    0.00000000
     atom   10 type  3   force =     0.00000000    0.00000000    0.00000000
     The SCF correction term to forces
     atom    1 type  1   force =     0.00003996    0.00000414   -0.00001028
     atom    2 type  1   force =    -0.00004094    0.00000193   -0.00000356
     atom    3 type  1   force =    -0.00000950   -0.00000256    0.00004306
     atom    4 type  1   force =     0.00000874   -0.00000178   -0.00001455
     atom    5 type  1   force =    -0.00001221   -0.00000634   -0.00000309
     atom    6 type  1   force =     0.00001311   -0.00001424   -0.00003299
     atom    7 type  1   force =     0.00002530    0.00001092    0.00002086
     atom    8 type  1   force =    -0.00002445    0.00001037    0.00001894
     atom    9 type  2   force =     0.00000099   -0.00000485   -0.00000895
     atom   10 type  3   force =     0.00000050   -0.00000611    0.00000224

     Total force =     0.126199     Total SCF correction =     0.000099

     Writing output data file PtCO_linearizedpb.save
 
     init_run     :     23.60s CPU     30.58s WALL (       1 calls)
     electrons    :    518.68s CPU    662.91s WALL (       1 calls)
     forces       :      1.19s CPU      1.19s WALL (       1 calls)

     Called by init_run:
     wfcinit      :      0.06s CPU      0.07s WALL (       1 calls)
     wfcinit:atom :      0.00s CPU      0.00s WALL (       1 calls)
     wfcinit:wfcr :      0.06s CPU      0.07s WALL (       1 calls)
     potinit      :      9.78s CPU     12.45s WALL (       1 calls)

     Called by electrons:
     c_bands      :      7.59s CPU      7.74s WALL (      24 calls)
     sum_band     :      6.00s CPU      6.39s WALL (      24 calls)
     v_of_rho     :      1.32s CPU      1.30s WALL (      25 calls)
     v_h          :      3.67s CPU      3.77s WALL (     943 calls)
     v_xc         :      1.26s CPU      1.26s WALL (      26 calls)
     newd         :      3.22s CPU      3.47s WALL (      25 calls)
     mix_rho      :      0.25s CPU      0.26s WALL (      24 calls)

     Called by c_bands:
     init_us_2    :      0.10s CPU      0.09s WALL (      49 calls)
     cegterg      :      7.22s CPU      7.35s WALL (      24 calls)

     Called by sum_band:
     sum_band:bec :      0.00s CPU      0.00s WALL (      24 calls)
     addusdens    :      4.66s CPU      5.04s WALL (      24 calls)

     Called by *egterg:
     h_psi        :      4.00s CPU      4.07s WALL (     101 calls)
     s_psi        :      0.29s CPU      0.31s WALL (     101 calls)
     g_psi        :      0.04s CPU      0.03s WALL (      76 calls)
     cdiaghg      :      1.14s CPU      1.15s WALL (     100 calls)
     cegterg:over :      0.60s CPU      0.60s WALL (      76 calls)
     cegterg:upda :      0.43s CPU      0.41s WALL (      76 calls)
     cegterg:last :      0.19s CPU      0.19s WALL (      24 calls)

     Called by h_psi:
     h_psi:pot    :      3.93s CPU      4.00s WALL (     101 calls)
     h_psi:calbec :      0.39s CPU      0.40s WALL (     101 calls)
     vloc_psi     :      3.24s CPU      3.30s WALL (     101 calls)
     add_vuspsi   :      0.30s CPU      0.30s WALL (     101 calls)

     General routines
     calbec       :      0.53s CPU      0.54s WALL (     129 calls)
     fft          :      6.87s CPU      6.96s WALL (    2566 calls)
     ffts         :      0.02s CPU      0.03s WALL (      49 calls)
     fftw         :      3.03s CPU      3.17s WALL (   10512 calls)
     interpolate  :      0.18s CPU      0.18s WALL (      49 calls)
     davcio       :      0.00s CPU      0.00s WALL (       1 calls)
 
     Parallel routines
     fft_scatter  :      4.39s CPU      4.68s WALL (   13127 calls)
 
     Environ routines
     calc_eelect  :      0.01s CPU      0.01s WALL (      48 calls)
     calc_velect  :     16.10s CPU     16.30s WALL (      42 calls)
     dielectric   :      0.07s CPU      0.06s WALL (      27 calls)
     electrolyte  :      0.00s CPU      0.00s WALL (       2 calls)
     calc_felect  :      0.01s CPU      0.01s WALL (       1 calls)
 
     PWSCF        :  9m 3.61s CPU    11m34.83s WALL

 
   This run was terminated on:  16:56:19  29Jan2018            

=------------------------------------------------------------------------------=
   JOB DONE.
=------------------------------------------------------------------------------=
