
     Program PWSCF v.7.0 starts on  2May2022 at 22:27: 7 

     This program is part of the open-source Quantum ESPRESSO suite
     for quantum simulation of materials; please cite
         "P. Giannozzi et al., J. Phys.:Condens. Matter 21 395502 (2009);
         "P. Giannozzi et al., J. Phys.:Condens. Matter 29 465901 (2017);
         "P. Giannozzi et al., J. Chem. Phys. 152 154105 (2020);
          URL http://www.quantum-espresso.org", 
     in publications or presentations arising from this work. More details at
     http://www.quantum-espresso.org/quote

     Parallel version (MPI), running on     1 processors

     MPI processes distributed on     1 nodes
     19354 MiB available memory on the printing compute node when the environment starts

     Waiting for input...
     Reading input from standard input
Warning: card &CELL ignored
Warning: card / ignored

     Current dimensions of program PWSCF are:
     Max number of different atomic species (ntypx) = 10
     Max number of k-points (npk) =  40000
     Max angular momentum in pseudopotentials (lmaxx) =  4

     Reading input from environ.in:
     * using electronic solvent mode
     * setting boundary derivatives method to SCCS default
     
     file Si.pbe-n-kjpaw_psl.1.0.0.UPF: wavefunction(s)  3S 3P renormalized
     Message from routine setup:
     using ibrav=0 with symmetry is DISCOURAGED, use correct ibrav instead

     Subspace diagonalization in iterative solution of the eigenvalue problem:
     a serial algorithm will be used


     G-vector sticks info
     --------------------
     sticks:   dense  smooth     PW     G-vecs:    dense   smooth      PW
     Sum         341     341     89                40125    40125    5049

     Using Slab Decomposition



     bravais-lattice index     =            0
     lattice parameter (alat)  =       7.3075  a.u.
     unit-cell volume          =    3311.1351 (a.u.)^3
     number of atoms/cell      =            4
     number of atomic types    =            1
     number of electrons       =        16.00
     number of Kohn-Sham states=           12
     kinetic-energy cutoff     =      20.0000  Ry
     charge density cutoff     =      80.0000  Ry
     scf convergence threshold =      1.0E-08
     mixing beta               =       0.7000
     number of iterations used =            8  local-TF  mixing
     Exchange-correlation= SLA  PW   PBX  PBC
                           (   1   4   3   4   0   0   0)

     ================================================================================

                                  Environ Setup Summary

     ================================================================================

     Please cite

          O. Andreussi, I. Dabo and N. Marzari, J. Chem. Phys. 136, 064102 (2012)
          Q. Campbell and I. Dabo, Phys. Rev. B 95, 205308 (2017)

     in publications or presentations arising from this work.

     ================================================================================

     Parameters
     ==========

     compensation onset threshold      =               0.1000E+03

     Electrostatic Setup
     ===================

     electrostatic problem to solve    =                  poisson
     numerical solver adopted          =                   direct
     type of auxiliary density adopted =                     none
     numerical core for poisson        =                      fft
     type of pbc corrections           =                       ms
     numerical core for corrections    =                      1da

     ================================================================================


     celldm(1)=   7.307524  celldm(2)=   0.000000  celldm(3)=   0.000000
     celldm(4)=   0.000000  celldm(5)=   0.000000  celldm(6)=   0.000000

     crystal axes: (cart. coord. in units of alat)
               a(1) = (   1.000000   0.000000   0.000000 )  
               a(2) = (  -0.000000   1.000000   0.000000 )  
               a(3) = (   0.000000   0.000000   8.485281 )  

     reciprocal axes: (cart. coord. in units 2 pi/alat)
               b(1) = (  1.000000  0.000000 -0.000000 )  
               b(2) = (  0.000000  1.000000  0.000000 )  
               b(3) = (  0.000000 -0.000000  0.117851 )  


     PseudoPot. # 1 for Si read from file:
     MD5 check sum: c39c59da582df4a0d9f10159256ea34e
     Pseudo is Projector augmented-wave + core cor, Zval =  4.0
     Generated using &quot;atomic&quot; code by A. Dal Corso  v.6.3
     Shape of augmentation charge: PSQ
     Using radial grid of 1141 points,  6 beta functions with: 
                l(1) =   0
                l(2) =   0
                l(3) =   1
                l(4) =   1
                l(5) =   2
                l(6) =   2
     Q(r) pseudized with 0 coefficients 


     atomic species   valence    mass     pseudopotential
        Si             4.00    28.08550     Si( 1.00)

      8 Sym. Ops., with inversion, found ( 4 have fractional translation)


                                    s                        frac. trans.

      isym =  1     identity                                     

 cryst.   s( 1) = (     1          0          0      )
                  (     0          1          0      )
                  (     0          0          1      )

 cart.    s( 1) = (  1.0000000  0.0000000  0.0000000 )
                  (  0.0000000  1.0000000  0.0000000 )
                  (  0.0000000  0.0000000  1.0000000 )


      isym =  2     180 deg rotation - cart. axis [0,0,1]        

 cryst.   s( 2) = (    -1          0          0      )
                  (     0         -1          0      )
                  (     0          0          1      )

 cart.    s( 2) = ( -1.0000000  0.0000000  0.0000000 )
                  (  0.0000000 -1.0000000  0.0000000 )
                  (  0.0000000  0.0000000  1.0000000 )


      isym =  3     180 deg rotation - cart. axis [0,1,0]        

 cryst.   s( 3) = (    -1          0          0      )    f =(  0.5000000 )
                  (     0          1          0      )       (  0.0000000 )
                  (     0          0         -1      )       (  0.0000000 )

 cart.    s( 3) = ( -1.0000000  0.0000000  0.0000000 )    f =(  0.5000000 )
                  (  0.0000000  1.0000000  0.0000000 )       (  0.0000000 )
                  (  0.0000000  0.0000000 -1.0000000 )       (  0.0000000 )


      isym =  4     180 deg rotation - cart. axis [1,0,0]        

 cryst.   s( 4) = (     1          0          0      )    f =(  0.5000000 )
                  (     0         -1          0      )       (  0.0000000 )
                  (     0          0         -1      )       (  0.0000000 )

 cart.    s( 4) = (  1.0000000  0.0000000  0.0000000 )    f =(  0.5000000 )
                  (  0.0000000 -1.0000000  0.0000000 )       (  0.0000000 )
                  (  0.0000000  0.0000000 -1.0000000 )       (  0.0000000 )


      isym =  5     inversion                                    

 cryst.   s( 5) = (    -1          0          0      )    f =(  0.5000000 )
                  (     0         -1          0      )       (  0.0000000 )
                  (     0          0         -1      )       (  0.0000000 )

 cart.    s( 5) = ( -1.0000000  0.0000000  0.0000000 )    f =(  0.5000000 )
                  (  0.0000000 -1.0000000  0.0000000 )       (  0.0000000 )
                  (  0.0000000  0.0000000 -1.0000000 )       (  0.0000000 )


      isym =  6     inv. 180 deg rotation - cart. axis [0,0,1]   

 cryst.   s( 6) = (     1          0          0      )    f =(  0.5000000 )
                  (     0          1          0      )       (  0.0000000 )
                  (     0          0         -1      )       (  0.0000000 )

 cart.    s( 6) = (  1.0000000  0.0000000  0.0000000 )    f =(  0.5000000 )
                  (  0.0000000  1.0000000  0.0000000 )       (  0.0000000 )
                  (  0.0000000  0.0000000 -1.0000000 )       (  0.0000000 )


      isym =  7     inv. 180 deg rotation - cart. axis [0,1,0]   

 cryst.   s( 7) = (     1          0          0      )
                  (     0         -1          0      )
                  (     0          0          1      )

 cart.    s( 7) = (  1.0000000  0.0000000  0.0000000 )
                  (  0.0000000 -1.0000000  0.0000000 )
                  (  0.0000000  0.0000000  1.0000000 )


      isym =  8     inv. 180 deg rotation - cart. axis [1,0,0]   

 cryst.   s( 8) = (    -1          0          0      )
                  (     0          1          0      )
                  (     0          0          1      )

 cart.    s( 8) = ( -1.0000000  0.0000000  0.0000000 )
                  (  0.0000000  1.0000000  0.0000000 )
                  (  0.0000000  0.0000000  1.0000000 )


   Cartesian axes

     site n.     atom                  positions (alat units)
         1           Si  tau(   1) = (   1.0000000   0.5000000   4.7729703  )
         2           Si  tau(   2) = (   0.5000000   0.5000000   3.7123103  )
         3           Si  tau(   3) = (   0.5000000   1.0000000   4.0658665  )
         4           Si  tau(   4) = (   1.0000000   0.0000000   4.4194142  )

   Crystallographic axes

     site n.     atom                  positions (cryst. coord.)
         1           Si  tau(   1) = (  1.0000000  0.5000000  0.5625000  )
         2           Si  tau(   2) = (  0.5000000  0.5000000  0.4375000  )
         3           Si  tau(   3) = (  0.5000000  1.0000000  0.4791670  )
         4           Si  tau(   4) = (  1.0000000  0.0000000  0.5208330  )

     number of k points=     1  Marzari-Vanderbilt smearing, width (Ry)=  0.0001
                       cart. coord. in units 2pi/alat
        k(    1) = (   0.0000000   0.0000000   0.0000000), wk =   2.0000000

                       cryst. coord.
        k(    1) = (   0.0000000   0.0000000   0.0000000), wk =   2.0000000

     Dense  grid:    40125 G-vectors     FFT dimensions: (  24,  24, 180)

     Dynamical RAM for                 wfc:       0.92 MB

     Dynamical RAM for     wfc (w. buffer):       0.92 MB

     Dynamical RAM for           str. fact:       0.61 MB

     Dynamical RAM for           local pot:       0.00 MB

     Dynamical RAM for          nlocal pot:       5.49 MB

     Dynamical RAM for                qrad:       0.72 MB

     Dynamical RAM for          rho,v,vnew:       4.21 MB

     Dynamical RAM for               rhoin:       1.40 MB

     Dynamical RAM for            rho*nmix:       9.80 MB

     Dynamical RAM for           G-vectors:       2.60 MB

     Dynamical RAM for          h,s,v(r/c):       0.03 MB

     Dynamical RAM for          <psi|beta>:       0.01 MB

     Dynamical RAM for                 psi:       1.83 MB

     Dynamical RAM for                hpsi:       1.83 MB

     Dynamical RAM for                spsi:       1.83 MB

     Dynamical RAM for      wfcinit/wfcrot:       2.45 MB

     Dynamical RAM for           addusdens:     116.33 MB

     Dynamical RAM for          addusforce:     120.32 MB

     Estimated static dynamical RAM per process >      21.14 MB

     Estimated max dynamical RAM per process >     151.26 MB

     Check: negative core charge=   -0.000003

     Initial potential from superposition of free atoms

     starting charge      15.9978, renormalised to      15.9990

     negative rho (up, down):  3.080E-03 0.000E+00
     Starting wfcs are   16 randomized atomic wfcs
     Checking if some PAW data can be deallocated... 

     total cpu time spent up to now is        1.1 secs

     Self-consistent Calculation

     iteration #  1     ecut=    20.00 Ry     beta= 0.70
     Davidson diagonalization with overlap

---- Real-time Memory Report at c_bands before calling an iterative solver
           253 MiB given to the printing process from OS
             0 MiB allocation reported by mallinfo(arena+hblkhd)
         19239 MiB available memory on the node where the printing process lives
------------------
     ethr =  1.00E-02,  avg # of iterations =  3.0

     negative rho (up, down):  6.161E-03 0.000E+00

     add environment contribution to local potential

     total cpu time spent up to now is        2.4 secs

     total energy              =    -186.07658248 Ry
     estimated scf accuracy    <       0.26764408 Ry
     electrostatic embedding   =       0.00000759 Ry
     correction to one-el term =      -0.00000000 Ry

     iteration #  2     ecut=    20.00 Ry     beta= 0.70
     Davidson diagonalization with overlap

---- Real-time Memory Report at c_bands before calling an iterative solver
           281 MiB given to the printing process from OS
             0 MiB allocation reported by mallinfo(arena+hblkhd)
         19267 MiB available memory on the node where the printing process lives
------------------
     ethr =  1.67E-03,  avg # of iterations =  1.0

     negative rho (up, down):  1.227E-02 0.000E+00

     add environment contribution to local potential

     total cpu time spent up to now is        3.9 secs

     total energy              =    -186.06065570 Ry
     estimated scf accuracy    <       0.07884505 Ry
     electrostatic embedding   =       0.00089516 Ry
     correction to one-el term =      26.12246193 Ry

     iteration #  3     ecut=    20.00 Ry     beta= 0.70
     Davidson diagonalization with overlap

---- Real-time Memory Report at c_bands before calling an iterative solver
           282 MiB given to the printing process from OS
             0 MiB allocation reported by mallinfo(arena+hblkhd)
         19266 MiB available memory on the node where the printing process lives
------------------
     ethr =  4.93E-04,  avg # of iterations =  2.0

     negative rho (up, down):  1.219E-02 0.000E+00

     add environment contribution to local potential

     total cpu time spent up to now is        5.2 secs

     total energy              =    -186.07446263 Ry
     estimated scf accuracy    <       0.00296239 Ry
     electrostatic embedding   =       0.00089495 Ry
     correction to one-el term =      26.12954553 Ry

     iteration #  4     ecut=    20.00 Ry     beta= 0.70
     Davidson diagonalization with overlap

---- Real-time Memory Report at c_bands before calling an iterative solver
           284 MiB given to the printing process from OS
             0 MiB allocation reported by mallinfo(arena+hblkhd)
         19264 MiB available memory on the node where the printing process lives
------------------
     c_bands:  1 eigenvalues not converged
     ethr =  1.85E-05,  avg # of iterations = 20.0

     negative rho (up, down):  1.191E-02 0.000E+00

     add environment contribution to local potential

     total cpu time spent up to now is        6.6 secs

     total energy              =    -186.07786336 Ry
     estimated scf accuracy    <       0.00377475 Ry
     electrostatic embedding   =       0.00089483 Ry
     correction to one-el term =      26.13149951 Ry

     iteration #  5     ecut=    20.00 Ry     beta= 0.70
     Davidson diagonalization with overlap

---- Real-time Memory Report at c_bands before calling an iterative solver
           285 MiB given to the printing process from OS
             0 MiB allocation reported by mallinfo(arena+hblkhd)
         19262 MiB available memory on the node where the printing process lives
------------------
     ethr =  1.85E-05,  avg # of iterations =  1.0

     negative rho (up, down):  1.052E-02 0.000E+00

     add environment contribution to local potential

     total cpu time spent up to now is        7.6 secs

     total energy              =    -186.07671321 Ry
     estimated scf accuracy    <       0.00290996 Ry
     electrostatic embedding   =       0.00089482 Ry
     correction to one-el term =      26.13215291 Ry

     iteration #  6     ecut=    20.00 Ry     beta= 0.70
     Davidson diagonalization with overlap

---- Real-time Memory Report at c_bands before calling an iterative solver
           286 MiB given to the printing process from OS
             0 MiB allocation reported by mallinfo(arena+hblkhd)
         19262 MiB available memory on the node where the printing process lives
------------------
     ethr =  1.82E-05,  avg # of iterations =  3.0

     negative rho (up, down):  1.072E-02 0.000E+00

     add environment contribution to local potential

     total cpu time spent up to now is        8.7 secs

     total energy              =    -186.07797920 Ry
     estimated scf accuracy    <       0.00438207 Ry
     electrostatic embedding   =       0.00089494 Ry
     correction to one-el term =      26.14537594 Ry

     iteration #  7     ecut=    20.00 Ry     beta= 0.70
     Davidson diagonalization with overlap

---- Real-time Memory Report at c_bands before calling an iterative solver
           287 MiB given to the printing process from OS
             0 MiB allocation reported by mallinfo(arena+hblkhd)
         19260 MiB available memory on the node where the printing process lives
------------------
     ethr =  1.82E-05,  avg # of iterations =  1.0

     negative rho (up, down):  1.050E-02 0.000E+00

     add environment contribution to local potential

     total cpu time spent up to now is        9.7 secs

     total energy              =    -186.07720322 Ry
     estimated scf accuracy    <       0.00240886 Ry
     electrostatic embedding   =       0.00089501 Ry
     correction to one-el term =      26.14570785 Ry

     iteration #  8     ecut=    20.00 Ry     beta= 0.70
     Davidson diagonalization with overlap

---- Real-time Memory Report at c_bands before calling an iterative solver
           288 MiB given to the printing process from OS
             0 MiB allocation reported by mallinfo(arena+hblkhd)
         19259 MiB available memory on the node where the printing process lives
------------------
     ethr =  1.51E-05,  avg # of iterations =  2.0

     negative rho (up, down):  9.631E-03 0.000E+00

     add environment contribution to local potential

     total cpu time spent up to now is       10.7 secs

     total energy              =    -186.07748452 Ry
     estimated scf accuracy    <       0.00024873 Ry
     electrostatic embedding   =       0.00089531 Ry
     correction to one-el term =      26.15106783 Ry

     iteration #  9     ecut=    20.00 Ry     beta= 0.70
     Davidson diagonalization with overlap

---- Real-time Memory Report at c_bands before calling an iterative solver
           290 MiB given to the printing process from OS
             0 MiB allocation reported by mallinfo(arena+hblkhd)
         19258 MiB available memory on the node where the printing process lives
------------------
     ethr =  1.55E-06,  avg # of iterations =  6.0

     negative rho (up, down):  8.874E-03 0.000E+00

     add environment contribution to local potential

     total cpu time spent up to now is       11.8 secs

     total energy              =    -186.07785340 Ry
     estimated scf accuracy    <       0.00156935 Ry
     electrostatic embedding   =       0.00089616 Ry
     correction to one-el term =      26.16790339 Ry

     iteration # 10     ecut=    20.00 Ry     beta= 0.70
     Davidson diagonalization with overlap

---- Real-time Memory Report at c_bands before calling an iterative solver
           291 MiB given to the printing process from OS
             0 MiB allocation reported by mallinfo(arena+hblkhd)
         19258 MiB available memory on the node where the printing process lives
------------------
     ethr =  1.55E-06,  avg # of iterations =  1.0

     negative rho (up, down):  6.986E-03 0.000E+00

     add environment contribution to local potential

     total cpu time spent up to now is       12.7 secs

     total energy              =    -186.07700037 Ry
     estimated scf accuracy    <       0.00142019 Ry
     electrostatic embedding   =       0.00089709 Ry
     correction to one-el term =      26.18506831 Ry

     iteration # 11     ecut=    20.00 Ry     beta= 0.70
     Davidson diagonalization with overlap

---- Real-time Memory Report at c_bands before calling an iterative solver
           291 MiB given to the printing process from OS
             0 MiB allocation reported by mallinfo(arena+hblkhd)
         19258 MiB available memory on the node where the printing process lives
------------------
     ethr =  1.55E-06,  avg # of iterations =  5.0

     negative rho (up, down):  6.052E-03 0.000E+00

     add environment contribution to local potential

     total cpu time spent up to now is       14.0 secs

     total energy              =    -186.07778645 Ry
     estimated scf accuracy    <       0.00110329 Ry
     electrostatic embedding   =       0.00090028 Ry
     correction to one-el term =      26.23726104 Ry

     iteration # 12     ecut=    20.00 Ry     beta= 0.70
     Davidson diagonalization with overlap

---- Real-time Memory Report at c_bands before calling an iterative solver
           291 MiB given to the printing process from OS
             0 MiB allocation reported by mallinfo(arena+hblkhd)
         19256 MiB available memory on the node where the printing process lives
------------------
     ethr =  1.55E-06,  avg # of iterations =  1.0

     negative rho (up, down):  4.900E-03 0.000E+00

     add environment contribution to local potential

     total cpu time spent up to now is       15.0 secs

     total energy              =    -186.07762574 Ry
     estimated scf accuracy    <       0.00111554 Ry
     electrostatic embedding   =       0.00090200 Ry
     correction to one-el term =      26.25778135 Ry

     iteration # 13     ecut=    20.00 Ry     beta= 0.70
     Davidson diagonalization with overlap

---- Real-time Memory Report at c_bands before calling an iterative solver
           291 MiB given to the printing process from OS
             0 MiB allocation reported by mallinfo(arena+hblkhd)
         19255 MiB available memory on the node where the printing process lives
------------------
     ethr =  1.55E-06,  avg # of iterations =  1.0

     negative rho (up, down):  4.276E-03 0.000E+00

     add environment contribution to local potential

     total cpu time spent up to now is       15.9 secs

     total energy              =    -186.07724869 Ry
     estimated scf accuracy    <       0.00077407 Ry
     electrostatic embedding   =       0.00090455 Ry
     correction to one-el term =      26.29194706 Ry

     iteration # 14     ecut=    20.00 Ry     beta= 0.70
     Davidson diagonalization with overlap

---- Real-time Memory Report at c_bands before calling an iterative solver
           291 MiB given to the printing process from OS
             0 MiB allocation reported by mallinfo(arena+hblkhd)
         19255 MiB available memory on the node where the printing process lives
------------------
     ethr =  1.55E-06,  avg # of iterations =  5.0

     negative rho (up, down):  3.851E-03 0.000E+00

     add environment contribution to local potential

     total cpu time spent up to now is       17.0 secs

     total energy              =    -186.07753250 Ry
     estimated scf accuracy    <       0.00014628 Ry
     electrostatic embedding   =       0.00090602 Ry
     correction to one-el term =      26.30368668 Ry

     iteration # 15     ecut=    20.00 Ry     beta= 0.70
     Davidson diagonalization with overlap

---- Real-time Memory Report at c_bands before calling an iterative solver
           291 MiB given to the printing process from OS
             0 MiB allocation reported by mallinfo(arena+hblkhd)
         19258 MiB available memory on the node where the printing process lives
------------------
     ethr =  9.14E-07,  avg # of iterations =  1.0

     negative rho (up, down):  3.769E-03 0.000E+00

     add environment contribution to local potential

     total cpu time spent up to now is       18.1 secs

     total energy              =    -186.07748626 Ry
     estimated scf accuracy    <       0.00013879 Ry
     electrostatic embedding   =       0.00090710 Ry
     correction to one-el term =      26.31556709 Ry

     iteration # 16     ecut=    20.00 Ry     beta= 0.70
     Davidson diagonalization with overlap

---- Real-time Memory Report at c_bands before calling an iterative solver
           291 MiB given to the printing process from OS
             0 MiB allocation reported by mallinfo(arena+hblkhd)
         19258 MiB available memory on the node where the printing process lives
------------------
     ethr =  8.67E-07,  avg # of iterations =  2.0

     negative rho (up, down):  3.762E-03 0.000E+00

     add environment contribution to local potential

     total cpu time spent up to now is       19.3 secs

     total energy              =    -186.07749666 Ry
     estimated scf accuracy    <       0.00001594 Ry
     electrostatic embedding   =       0.00090735 Ry
     correction to one-el term =      26.31883996 Ry

     iteration # 17     ecut=    20.00 Ry     beta= 0.70
     Davidson diagonalization with overlap

---- Real-time Memory Report at c_bands before calling an iterative solver
           291 MiB given to the printing process from OS
             0 MiB allocation reported by mallinfo(arena+hblkhd)
         19261 MiB available memory on the node where the printing process lives
------------------
     ethr =  9.96E-08,  avg # of iterations =  5.0

     negative rho (up, down):  3.756E-03 0.000E+00

     add environment contribution to local potential

     total cpu time spent up to now is       20.4 secs

     total energy              =    -186.07750184 Ry
     estimated scf accuracy    <       0.00000035 Ry
     electrostatic embedding   =       0.00090744 Ry
     correction to one-el term =      26.31961508 Ry

     iteration # 18     ecut=    20.00 Ry     beta= 0.70
     Davidson diagonalization with overlap

---- Real-time Memory Report at c_bands before calling an iterative solver
           291 MiB given to the printing process from OS
             0 MiB allocation reported by mallinfo(arena+hblkhd)
         19261 MiB available memory on the node where the printing process lives
------------------
     ethr =  2.22E-09,  avg # of iterations =  5.0

     negative rho (up, down):  3.748E-03 0.000E+00

     add environment contribution to local potential

     total cpu time spent up to now is       21.4 secs

     total energy              =    -186.07750205 Ry
     estimated scf accuracy    <       0.00000060 Ry
     electrostatic embedding   =       0.00090758 Ry
     correction to one-el term =      26.32043723 Ry

     iteration # 19     ecut=    20.00 Ry     beta= 0.70
     Davidson diagonalization with overlap

---- Real-time Memory Report at c_bands before calling an iterative solver
           291 MiB given to the printing process from OS
             0 MiB allocation reported by mallinfo(arena+hblkhd)
         19258 MiB available memory on the node where the printing process lives
------------------
     ethr =  2.22E-09,  avg # of iterations =  5.0

     negative rho (up, down):  3.744E-03 0.000E+00

     add environment contribution to local potential

     total cpu time spent up to now is       22.5 secs

     total energy              =    -186.07750241 Ry
     estimated scf accuracy    <       0.00000018 Ry
     electrostatic embedding   =       0.00090770 Ry
     correction to one-el term =      26.32144106 Ry

     iteration # 20     ecut=    20.00 Ry     beta= 0.70
     Davidson diagonalization with overlap

---- Real-time Memory Report at c_bands before calling an iterative solver
           291 MiB given to the printing process from OS
             0 MiB allocation reported by mallinfo(arena+hblkhd)
         19257 MiB available memory on the node where the printing process lives
------------------
     ethr =  1.14E-09,  avg # of iterations =  5.0

     negative rho (up, down):  3.750E-03 0.000E+00

     add environment contribution to local potential

     total cpu time spent up to now is       23.6 secs

     total energy              =    -186.07750236 Ry
     estimated scf accuracy    <       0.00000083 Ry
     electrostatic embedding   =       0.00090772 Ry
     correction to one-el term =      26.32172200 Ry

     iteration # 21     ecut=    20.00 Ry     beta= 0.70
     Davidson diagonalization with overlap

---- Real-time Memory Report at c_bands before calling an iterative solver
           291 MiB given to the printing process from OS
             0 MiB allocation reported by mallinfo(arena+hblkhd)
         19256 MiB available memory on the node where the printing process lives
------------------
     ethr =  1.14E-09,  avg # of iterations =  2.0

     negative rho (up, down):  3.755E-03 0.000E+00

     add environment contribution to local potential

     total cpu time spent up to now is       24.6 secs

     total energy              =    -186.07750219 Ry
     estimated scf accuracy    <       0.00000034 Ry
     electrostatic embedding   =       0.00090771 Ry
     correction to one-el term =      26.32148240 Ry

     iteration # 22     ecut=    20.00 Ry     beta= 0.70
     Davidson diagonalization with overlap

---- Real-time Memory Report at c_bands before calling an iterative solver
           291 MiB given to the printing process from OS
             0 MiB allocation reported by mallinfo(arena+hblkhd)
         19255 MiB available memory on the node where the printing process lives
------------------
     ethr =  1.14E-09,  avg # of iterations =  4.0

     negative rho (up, down):  3.756E-03 0.000E+00

     add environment contribution to local potential

     total cpu time spent up to now is       25.8 secs

     total energy              =    -186.07750229 Ry
     estimated scf accuracy    <       0.00000004 Ry
     electrostatic embedding   =       0.00090770 Ry
     correction to one-el term =      26.32131633 Ry

     iteration # 23     ecut=    20.00 Ry     beta= 0.70
     Davidson diagonalization with overlap

---- Real-time Memory Report at c_bands before calling an iterative solver
           291 MiB given to the printing process from OS
             0 MiB allocation reported by mallinfo(arena+hblkhd)
         19253 MiB available memory on the node where the printing process lives
------------------
     ethr =  2.32E-10,  avg # of iterations =  2.0

     negative rho (up, down):  3.446E-03 0.000E+00

     the potential shift due to the Gaussian-smeared nuclei is    -0.1033 ev

     total cpu time spent up to now is       26.4 secs

     End of self-consistent calculation

          k = 0.0000 0.0000 0.0000 (  5049 PWs)   bands (ev):

   -37.7197 -35.4959 -32.2398 -28.7963 -28.7815 -28.3050 -27.3710 -26.2435
   -25.6814 -25.2357 -24.9494 -23.8767

     occupation numbers 
     1.0000   1.0000   1.0000   1.0000   1.0000   1.0000   1.0000   1.0000
     0.0000   0.0000   0.0000   0.0000

     the Fermi energy is   -26.2339 ev

     WARNING: integrated charge=    16.00000000, expected=    15.99900000

!    total energy              =    -186.07750248 Ry

     total all-electron energy =     -2319.460962 Ry
     estimated scf accuracy    <          4.6E-09 Ry
     smearing contrib. (-TS)   =       0.00000000 Ry
     internal energy E=F+TS    =    -186.07750248 Ry

     The total energy is F=E-TS. E is the sum of the following terms:
     one-electron contribution =    -442.21917823 Ry
     hartree contribution      =     210.10873471 Ry
     xc contribution           =     -24.23232812 Ry
     ewald contribution        =     186.30364135 Ry
     one-center paw contrib.   =    -142.36062029 Ry
      -> PAW hartree energy AE =      11.45956024 Ry
      -> PAW hartree energy PS =     -11.41404773 Ry
      -> PAW xc energy AE      =    -163.34661087 Ry
      -> PAW xc energy PS      =      20.94047808 Ry
      -> total E_H with PAW    =     210.15424721 Ry
      -> total E_XC with PAW   =    -166.63846091 Ry
     electrostatic embedding   =       0.00090771 Ry
     correction to one-el term =      26.32134039 Ry

     WARNING: you are using the parabolic pbc correction;
              the potential shift above must be added to 
              band and Fermi energies.

     convergence has been achieved in  23 iterations

     negative rho (up, down):  3.446E-03 0.000E+00
     The dielectric solvent contribution to forces
     atom    1 type  1   force =    -0.00000000   -0.00000000    0.00011670
     atom    2 type  1   force =    -0.00000000   -0.00000000   -0.00011862
     atom    3 type  1   force =    -0.00000000   -0.00000000   -0.00004018
     atom    4 type  1   force =    -0.00000000   -0.00000000    0.00003826


     Forces acting on atoms (cartesian axes, Ry/au):

     atom    1 type  1   force =     0.00000000    0.00000000    0.00499315
     atom    2 type  1   force =     0.00000000    0.00000000   -0.00499315
     atom    3 type  1   force =     0.00000000    0.00000000    0.00045472
     atom    4 type  1   force =     0.00000000    0.00000000   -0.00045472
     The non-local contrib.  to forces
     atom    1 type  1   force =     0.00000000    0.00000000   -0.01516829
     atom    2 type  1   force =     0.00000000    0.00000000    0.01516829
     atom    3 type  1   force =     0.00000000    0.00000000   -0.05441661
     atom    4 type  1   force =     0.00000000    0.00000000    0.05441661
     The ionic contribution  to forces
     atom    1 type  1   force =    -0.00000000   -0.00000000    8.79312658
     atom    2 type  1   force =    -0.00000000   -0.00000000   -8.79312658
     atom    3 type  1   force =     0.00000000    0.00000000   -2.98930598
     atom    4 type  1   force =    -0.00000000   -0.00000000    2.98930598
     The local contribution  to forces
     atom    1 type  1   force =     0.00000000   -0.00000000   -8.77257351
     atom    2 type  1   force =     0.00000000    0.00000000    8.77257351
     atom    3 type  1   force =    -0.00000000    0.00000000    3.03870545
     atom    4 type  1   force =     0.00000000   -0.00000000   -3.03870545
     The core correction contribution to forces
     atom    1 type  1   force =     0.00000000    0.00000000   -0.00046576
     atom    2 type  1   force =     0.00000000    0.00000000    0.00046576
     atom    3 type  1   force =    -0.00000000   -0.00000000    0.00546376
     atom    4 type  1   force =     0.00000000   -0.00000000   -0.00546376
     The Hubbard contrib.    to forces
     atom    1 type  1   force =     0.00000000    0.00000000    0.00000000
     atom    2 type  1   force =     0.00000000    0.00000000    0.00000000
     atom    3 type  1   force =     0.00000000    0.00000000    0.00000000
     atom    4 type  1   force =     0.00000000    0.00000000    0.00000000
     The SCF correction term to forces
     atom    1 type  1   force =     0.00000000   -0.00000000   -0.00004362
     atom    2 type  1   force =     0.00000000   -0.00000000    0.00004347
     atom    3 type  1   force =    -0.00000000    0.00000000    0.00004721
     atom    4 type  1   force =     0.00000000    0.00000000   -0.00004741

     Total force =     0.007091     Total SCF correction =     0.000091


     init_run     :      0.87s CPU      0.95s WALL (       1 calls)
     electrons    :     23.92s CPU     25.35s WALL (       1 calls)
     forces       :      0.17s CPU      0.21s WALL (       1 calls)

     Called by init_run:
     wfcinit      :      0.04s CPU      0.04s WALL (       1 calls)
     wfcinit:atom :      0.00s CPU      0.00s WALL (       1 calls)
     wfcinit:wfcr :      0.04s CPU      0.04s WALL (       1 calls)
     potinit      :      0.48s CPU      0.52s WALL (       1 calls)
     hinit0       :      0.25s CPU      0.26s WALL (       1 calls)

     Called by electrons:
     c_bands      :      1.96s CPU      2.02s WALL (      23 calls)
     sum_band     :      1.89s CPU      2.41s WALL (      23 calls)
     v_of_rho     :      0.79s CPU      0.79s WALL (      24 calls)
     v_h          :      0.03s CPU      0.03s WALL (      24 calls)
     v_xc         :      0.79s CPU      0.81s WALL (      25 calls)
     newd         :      1.21s CPU      1.79s WALL (      24 calls)
     PAW_pot      :     10.38s CPU     10.42s WALL (      24 calls)
     mix_rho      :      7.98s CPU      8.26s WALL (      23 calls)

     Called by c_bands:
     init_us_2    :      0.07s CPU      0.08s WALL (      47 calls)
     init_us_2:cp :      0.07s CPU      0.08s WALL (      47 calls)
     cegterg      :      1.71s CPU      1.77s WALL (      23 calls)

     Called by sum_band:
     sum_band:wei :      0.00s CPU      0.00s WALL (      23 calls)
     sum_band:loo :      0.29s CPU      0.34s WALL (      23 calls)
     sum_band:buf :      0.00s CPU      0.00s WALL (      23 calls)
     sum_band:ini :      0.03s CPU      0.05s WALL (      23 calls)
     sum_band:cal :      0.03s CPU      0.03s WALL (      23 calls)
     sum_band:bec :      0.00s CPU      0.00s WALL (      23 calls)
     addusdens    :      1.48s CPU      1.95s WALL (      23 calls)
     addusd:skk   :      0.01s CPU      0.01s WALL (      23 calls)
     addusd:dgemm :      0.16s CPU      0.55s WALL (      23 calls)
     addusd:qvan2 :      0.98s CPU      0.98s WALL (      23 calls)

     Called by *egterg:
     cdiaghg      :      0.02s CPU      0.02s WALL (     106 calls)
     cegterg:over :      0.04s CPU      0.04s WALL (      83 calls)
     cegterg:upda :      0.03s CPU      0.03s WALL (      83 calls)
     cegterg:last :      0.04s CPU      0.06s WALL (      48 calls)
     h_psi        :      1.49s CPU      1.53s WALL (     107 calls)
     s_psi        :      0.09s CPU      0.10s WALL (     107 calls)
     g_psi        :      0.01s CPU      0.01s WALL (      83 calls)

     Called by h_psi:
     h_psi:calbec :      0.10s CPU      0.10s WALL (     107 calls)
     vloc_psi     :      1.28s CPU      1.32s WALL (     107 calls)
     add_vuspsi   :      0.10s CPU      0.10s WALL (     107 calls)

     General routines
     calbec       :      0.13s CPU      0.13s WALL (     134 calls)
     fft          :      0.21s CPU      0.21s WALL (     275 calls)
     ffts         :      3.45s CPU      3.62s WALL (    4455 calls)
     fftw         :      1.32s CPU      1.39s WALL (    1826 calls)

     Parallel routines

     PAW routines
     PAW_pot      :     10.38s CPU     10.42s WALL (      24 calls)
     PAW_symme    :      0.01s CPU      0.01s WALL (      47 calls)

     Environ routines

     PWSCF        :     25.11s CPU     26.67s WALL


   This run was terminated on:  22:27:33   2May2022            

=------------------------------------------------------------------------------=
   JOB DONE.
=------------------------------------------------------------------------------=
