
     Program PWSCF v.7.0 starts on  2May2022 at 22:27:34 

     This program is part of the open-source Quantum ESPRESSO suite
     for quantum simulation of materials; please cite
         "P. Giannozzi et al., J. Phys.:Condens. Matter 21 395502 (2009);
         "P. Giannozzi et al., J. Phys.:Condens. Matter 29 465901 (2017);
         "P. Giannozzi et al., J. Chem. Phys. 152 154105 (2020);
          URL http://www.quantum-espresso.org", 
     in publications or presentations arising from this work. More details at
     http://www.quantum-espresso.org/quote

     Parallel version (MPI), running on     1 processors

     MPI processes distributed on     1 nodes
     19350 MiB available memory on the printing compute node when the environment starts

     Waiting for input...
     Reading input from standard input
Warning: card &CELL ignored
Warning: card / ignored

     Current dimensions of program PWSCF are:
     Max number of different atomic species (ntypx) = 10
     Max number of k-points (npk) =  40000
     Max angular momentum in pseudopotentials (lmaxx) =  4

     Reading input from environ.in:
     * using electronic solvent mode
     * setting boundary derivatives method to SCCS default
     
     file Si.pbe-n-kjpaw_psl.1.0.0.UPF: wavefunction(s)  3S 3P renormalized
     Message from routine setup:
     using ibrav=0 with symmetry is DISCOURAGED, use correct ibrav instead

     Subspace diagonalization in iterative solution of the eigenvalue problem:
     a serial algorithm will be used


     G-vector sticks info
     --------------------
     sticks:   dense  smooth     PW     G-vecs:    dense   smooth      PW
     Sum         341     341     89                40125    40125    5049

     Using Slab Decomposition



     bravais-lattice index     =            0
     lattice parameter (alat)  =       7.3075  a.u.
     unit-cell volume          =    3311.1351 (a.u.)^3
     number of atoms/cell      =            4
     number of atomic types    =            1
     number of electrons       =        16.00
     number of Kohn-Sham states=           12
     kinetic-energy cutoff     =      20.0000  Ry
     charge density cutoff     =      80.0000  Ry
     scf convergence threshold =      1.0E-08
     mixing beta               =       0.7000
     number of iterations used =            8  local-TF  mixing
     Exchange-correlation= SLA  PW   PBX  PBC
                           (   1   4   3   4   0   0   0)

     ================================================================================

                                  Environ Setup Summary

     ================================================================================

     Please cite

          O. Andreussi, I. Dabo and N. Marzari, J. Chem. Phys. 136, 064102 (2012)
          Q. Campbell and I. Dabo, Phys. Rev. B 95, 205308 (2017)

     in publications or presentations arising from this work.

     ================================================================================

     Parameters
     ==========

     compensation onset threshold      =               0.1000E+03

     Electrostatic Setup
     ===================

     electrostatic problem to solve    =                  poisson
     numerical solver adopted          =                   direct
     type of auxiliary density adopted =                     none
     numerical core for poisson        =                      fft
     type of pbc corrections           =                       ms
     numerical core for corrections    =                      1da

     ================================================================================


     celldm(1)=   7.307524  celldm(2)=   0.000000  celldm(3)=   0.000000
     celldm(4)=   0.000000  celldm(5)=   0.000000  celldm(6)=   0.000000

     crystal axes: (cart. coord. in units of alat)
               a(1) = (   1.000000   0.000000   0.000000 )  
               a(2) = (  -0.000000   1.000000   0.000000 )  
               a(3) = (   0.000000   0.000000   8.485281 )  

     reciprocal axes: (cart. coord. in units 2 pi/alat)
               b(1) = (  1.000000  0.000000 -0.000000 )  
               b(2) = (  0.000000  1.000000  0.000000 )  
               b(3) = (  0.000000 -0.000000  0.117851 )  


     PseudoPot. # 1 for Si read from file:
     MD5 check sum: c39c59da582df4a0d9f10159256ea34e
     Pseudo is Projector augmented-wave + core cor, Zval =  4.0
     Generated using &quot;atomic&quot; code by A. Dal Corso  v.6.3
     Shape of augmentation charge: PSQ
     Using radial grid of 1141 points,  6 beta functions with: 
                l(1) =   0
                l(2) =   0
                l(3) =   1
                l(4) =   1
                l(5) =   2
                l(6) =   2
     Q(r) pseudized with 0 coefficients 


     atomic species   valence    mass     pseudopotential
        Si             4.00    28.08550     Si( 1.00)

      8 Sym. Ops., with inversion, found ( 4 have fractional translation)


                                    s                        frac. trans.

      isym =  1     identity                                     

 cryst.   s( 1) = (     1          0          0      )
                  (     0          1          0      )
                  (     0          0          1      )

 cart.    s( 1) = (  1.0000000  0.0000000  0.0000000 )
                  (  0.0000000  1.0000000  0.0000000 )
                  (  0.0000000  0.0000000  1.0000000 )


      isym =  2     180 deg rotation - cart. axis [0,0,1]        

 cryst.   s( 2) = (    -1          0          0      )
                  (     0         -1          0      )
                  (     0          0          1      )

 cart.    s( 2) = ( -1.0000000  0.0000000  0.0000000 )
                  (  0.0000000 -1.0000000  0.0000000 )
                  (  0.0000000  0.0000000  1.0000000 )


      isym =  3     180 deg rotation - cart. axis [0,1,0]        

 cryst.   s( 3) = (    -1          0          0      )    f =(  0.5000000 )
                  (     0          1          0      )       (  0.0000000 )
                  (     0          0         -1      )       (  0.0000000 )

 cart.    s( 3) = ( -1.0000000  0.0000000  0.0000000 )    f =(  0.5000000 )
                  (  0.0000000  1.0000000  0.0000000 )       (  0.0000000 )
                  (  0.0000000  0.0000000 -1.0000000 )       (  0.0000000 )


      isym =  4     180 deg rotation - cart. axis [1,0,0]        

 cryst.   s( 4) = (     1          0          0      )    f =(  0.5000000 )
                  (     0         -1          0      )       (  0.0000000 )
                  (     0          0         -1      )       (  0.0000000 )

 cart.    s( 4) = (  1.0000000  0.0000000  0.0000000 )    f =(  0.5000000 )
                  (  0.0000000 -1.0000000  0.0000000 )       (  0.0000000 )
                  (  0.0000000  0.0000000 -1.0000000 )       (  0.0000000 )


      isym =  5     inversion                                    

 cryst.   s( 5) = (    -1          0          0      )    f =(  0.5000000 )
                  (     0         -1          0      )       (  0.0000000 )
                  (     0          0         -1      )       (  0.0000000 )

 cart.    s( 5) = ( -1.0000000  0.0000000  0.0000000 )    f =(  0.5000000 )
                  (  0.0000000 -1.0000000  0.0000000 )       (  0.0000000 )
                  (  0.0000000  0.0000000 -1.0000000 )       (  0.0000000 )


      isym =  6     inv. 180 deg rotation - cart. axis [0,0,1]   

 cryst.   s( 6) = (     1          0          0      )    f =(  0.5000000 )
                  (     0          1          0      )       (  0.0000000 )
                  (     0          0         -1      )       (  0.0000000 )

 cart.    s( 6) = (  1.0000000  0.0000000  0.0000000 )    f =(  0.5000000 )
                  (  0.0000000  1.0000000  0.0000000 )       (  0.0000000 )
                  (  0.0000000  0.0000000 -1.0000000 )       (  0.0000000 )


      isym =  7     inv. 180 deg rotation - cart. axis [0,1,0]   

 cryst.   s( 7) = (     1          0          0      )
                  (     0         -1          0      )
                  (     0          0          1      )

 cart.    s( 7) = (  1.0000000  0.0000000  0.0000000 )
                  (  0.0000000 -1.0000000  0.0000000 )
                  (  0.0000000  0.0000000  1.0000000 )


      isym =  8     inv. 180 deg rotation - cart. axis [1,0,0]   

 cryst.   s( 8) = (    -1          0          0      )
                  (     0          1          0      )
                  (     0          0          1      )

 cart.    s( 8) = ( -1.0000000  0.0000000  0.0000000 )
                  (  0.0000000  1.0000000  0.0000000 )
                  (  0.0000000  0.0000000  1.0000000 )


   Cartesian axes

     site n.     atom                  positions (alat units)
         1           Si  tau(   1) = (   1.0000000   0.5000000   4.7729703  )
         2           Si  tau(   2) = (   0.5000000   0.5000000   3.7123103  )
         3           Si  tau(   3) = (   0.5000000   1.0000000   4.0658665  )
         4           Si  tau(   4) = (   1.0000000   0.0000000   4.4194142  )

   Crystallographic axes

     site n.     atom                  positions (cryst. coord.)
         1           Si  tau(   1) = (  1.0000000  0.5000000  0.5625000  )
         2           Si  tau(   2) = (  0.5000000  0.5000000  0.4375000  )
         3           Si  tau(   3) = (  0.5000000  1.0000000  0.4791670  )
         4           Si  tau(   4) = (  1.0000000  0.0000000  0.5208330  )

     number of k points=     1  Marzari-Vanderbilt smearing, width (Ry)=  0.0001
                       cart. coord. in units 2pi/alat
        k(    1) = (   0.0000000   0.0000000   0.0000000), wk =   2.0000000

                       cryst. coord.
        k(    1) = (   0.0000000   0.0000000   0.0000000), wk =   2.0000000

     Dense  grid:    40125 G-vectors     FFT dimensions: (  24,  24, 180)

     Dynamical RAM for                 wfc:       0.92 MB

     Dynamical RAM for     wfc (w. buffer):       0.92 MB

     Dynamical RAM for           str. fact:       0.61 MB

     Dynamical RAM for           local pot:       0.00 MB

     Dynamical RAM for          nlocal pot:       5.49 MB

     Dynamical RAM for                qrad:       0.72 MB

     Dynamical RAM for          rho,v,vnew:       4.21 MB

     Dynamical RAM for               rhoin:       1.40 MB

     Dynamical RAM for            rho*nmix:       9.80 MB

     Dynamical RAM for           G-vectors:       2.60 MB

     Dynamical RAM for          h,s,v(r/c):       0.03 MB

     Dynamical RAM for          <psi|beta>:       0.01 MB

     Dynamical RAM for                 psi:       1.83 MB

     Dynamical RAM for                hpsi:       1.83 MB

     Dynamical RAM for                spsi:       1.83 MB

     Dynamical RAM for      wfcinit/wfcrot:       2.45 MB

     Dynamical RAM for           addusdens:     116.33 MB

     Dynamical RAM for          addusforce:     120.32 MB

     Estimated static dynamical RAM per process >      21.14 MB

     Estimated max dynamical RAM per process >     151.26 MB

     Check: negative core charge=   -0.000003

     Initial potential from superposition of free atoms

     starting charge      15.9978, renormalised to      15.9990

     negative rho (up, down):  3.080E-03 0.000E+00
     Starting wfcs are   16 randomized atomic wfcs
     Checking if some PAW data can be deallocated... 

     total cpu time spent up to now is        0.9 secs

     Self-consistent Calculation

     iteration #  1     ecut=    20.00 Ry     beta= 0.70
     Davidson diagonalization with overlap

---- Real-time Memory Report at c_bands before calling an iterative solver
           250 MiB given to the printing process from OS
             0 MiB allocation reported by mallinfo(arena+hblkhd)
         19290 MiB available memory on the node where the printing process lives
------------------
     ethr =  1.00E-02,  avg # of iterations =  3.0

     negative rho (up, down):  6.161E-03 0.000E+00

     add environment contribution to local potential

     total cpu time spent up to now is        2.2 secs

     total energy              =    -186.07658248 Ry
     estimated scf accuracy    <       0.26764408 Ry
     electrostatic embedding   =       0.00000759 Ry
     correction to one-el term =      -0.00000000 Ry

     iteration #  2     ecut=    20.00 Ry     beta= 0.70
     Davidson diagonalization with overlap

---- Real-time Memory Report at c_bands before calling an iterative solver
           277 MiB given to the printing process from OS
             0 MiB allocation reported by mallinfo(arena+hblkhd)
         19267 MiB available memory on the node where the printing process lives
------------------
     ethr =  1.67E-03,  avg # of iterations =  1.0

     negative rho (up, down):  1.170E-02 0.000E+00

     add environment contribution to local potential

     total cpu time spent up to now is        3.2 secs

     total energy              =    -186.06212954 Ry
     estimated scf accuracy    <       0.07688677 Ry
     electrostatic embedding   =       0.00022519 Ry
     correction to one-el term =       4.68503171 Ry

     iteration #  3     ecut=    20.00 Ry     beta= 0.70
     Davidson diagonalization with overlap

---- Real-time Memory Report at c_bands before calling an iterative solver
           279 MiB given to the printing process from OS
             0 MiB allocation reported by mallinfo(arena+hblkhd)
         19266 MiB available memory on the node where the printing process lives
------------------
     ethr =  4.81E-04,  avg # of iterations =  2.0

     negative rho (up, down):  1.172E-02 0.000E+00

     add environment contribution to local potential

     total cpu time spent up to now is        4.4 secs

     total energy              =    -186.07505916 Ry
     estimated scf accuracy    <       0.00334249 Ry
     electrostatic embedding   =       0.00022504 Ry
     correction to one-el term =       4.69270530 Ry

     iteration #  4     ecut=    20.00 Ry     beta= 0.70
     Davidson diagonalization with overlap

---- Real-time Memory Report at c_bands before calling an iterative solver
           280 MiB given to the printing process from OS
             0 MiB allocation reported by mallinfo(arena+hblkhd)
         19265 MiB available memory on the node where the printing process lives
------------------
     ethr =  2.09E-05,  avg # of iterations = 18.0

     negative rho (up, down):  1.155E-02 0.000E+00

     add environment contribution to local potential

     total cpu time spent up to now is        5.5 secs

     total energy              =    -186.07697883 Ry
     estimated scf accuracy    <       0.00355729 Ry
     electrostatic embedding   =       0.00022492 Ry
     correction to one-el term =       4.69409842 Ry

     iteration #  5     ecut=    20.00 Ry     beta= 0.70
     Davidson diagonalization with overlap

---- Real-time Memory Report at c_bands before calling an iterative solver
           281 MiB given to the printing process from OS
             0 MiB allocation reported by mallinfo(arena+hblkhd)
         19265 MiB available memory on the node where the printing process lives
------------------
     ethr =  2.09E-05,  avg # of iterations =  2.0

     negative rho (up, down):  1.108E-02 0.000E+00

     add environment contribution to local potential

     total cpu time spent up to now is        6.5 secs

     total energy              =    -186.07656640 Ry
     estimated scf accuracy    <       0.00218460 Ry
     electrostatic embedding   =       0.00022487 Ry
     correction to one-el term =       4.69477833 Ry

     iteration #  6     ecut=    20.00 Ry     beta= 0.70
     Davidson diagonalization with overlap

---- Real-time Memory Report at c_bands before calling an iterative solver
           283 MiB given to the printing process from OS
             0 MiB allocation reported by mallinfo(arena+hblkhd)
         19261 MiB available memory on the node where the printing process lives
------------------
     ethr =  1.37E-05,  avg # of iterations =  2.0

     negative rho (up, down):  1.099E-02 0.000E+00

     add environment contribution to local potential

     total cpu time spent up to now is        7.5 secs

     total energy              =    -186.07709114 Ry
     estimated scf accuracy    <       0.00063272 Ry
     electrostatic embedding   =       0.00022488 Ry
     correction to one-el term =       4.70432659 Ry

     iteration #  7     ecut=    20.00 Ry     beta= 0.70
     Davidson diagonalization with overlap

---- Real-time Memory Report at c_bands before calling an iterative solver
           284 MiB given to the printing process from OS
             0 MiB allocation reported by mallinfo(arena+hblkhd)
         19262 MiB available memory on the node where the printing process lives
------------------
     ethr =  3.95E-06,  avg # of iterations = 10.0

     negative rho (up, down):  1.049E-02 0.000E+00

     add environment contribution to local potential

     total cpu time spent up to now is        8.6 secs

     total energy              =    -186.07687622 Ry
     estimated scf accuracy    <       0.00057059 Ry
     electrostatic embedding   =       0.00022497 Ry
     correction to one-el term =       4.70665618 Ry

     iteration #  8     ecut=    20.00 Ry     beta= 0.70
     Davidson diagonalization with overlap

---- Real-time Memory Report at c_bands before calling an iterative solver
           285 MiB given to the printing process from OS
             0 MiB allocation reported by mallinfo(arena+hblkhd)
         19263 MiB available memory on the node where the printing process lives
------------------
     ethr =  3.57E-06,  avg # of iterations =  2.0

     negative rho (up, down):  9.415E-03 0.000E+00

     add environment contribution to local potential

     total cpu time spent up to now is        9.6 secs

     total energy              =    -186.07696246 Ry
     estimated scf accuracy    <       0.00021112 Ry
     electrostatic embedding   =       0.00022545 Ry
     correction to one-el term =       4.71596058 Ry

     iteration #  9     ecut=    20.00 Ry     beta= 0.70
     Davidson diagonalization with overlap

---- Real-time Memory Report at c_bands before calling an iterative solver
           286 MiB given to the printing process from OS
             0 MiB allocation reported by mallinfo(arena+hblkhd)
         19263 MiB available memory on the node where the printing process lives
------------------
     ethr =  1.32E-06,  avg # of iterations =  3.0

     negative rho (up, down):  7.692E-03 0.000E+00

     add environment contribution to local potential

     total cpu time spent up to now is       10.6 secs

     total energy              =    -186.07687764 Ry
     estimated scf accuracy    <       0.00034876 Ry
     electrostatic embedding   =       0.00022652 Ry
     correction to one-el term =       4.73780383 Ry

     iteration # 10     ecut=    20.00 Ry     beta= 0.70
     Davidson diagonalization with overlap

---- Real-time Memory Report at c_bands before calling an iterative solver
           288 MiB given to the printing process from OS
             0 MiB allocation reported by mallinfo(arena+hblkhd)
         19262 MiB available memory on the node where the printing process lives
------------------
     ethr =  1.32E-06,  avg # of iterations =  2.0

     negative rho (up, down):  5.831E-03 0.000E+00

     add environment contribution to local potential

     total cpu time spent up to now is       11.6 secs

     total energy              =    -186.07679830 Ry
     estimated scf accuracy    <       0.00012384 Ry
     electrostatic embedding   =       0.00022890 Ry
     correction to one-el term =       4.77791741 Ry

     iteration # 11     ecut=    20.00 Ry     beta= 0.70
     Davidson diagonalization with overlap

---- Real-time Memory Report at c_bands before calling an iterative solver
           288 MiB given to the printing process from OS
             0 MiB allocation reported by mallinfo(arena+hblkhd)
         19261 MiB available memory on the node where the printing process lives
------------------
     ethr =  7.74E-07,  avg # of iterations =  4.0

     negative rho (up, down):  5.257E-03 0.000E+00

     add environment contribution to local potential

     total cpu time spent up to now is       12.6 secs

     total energy              =    -186.07674174 Ry
     estimated scf accuracy    <       0.00059267 Ry
     electrostatic embedding   =       0.00023227 Ry
     correction to one-el term =       4.82476709 Ry

     iteration # 12     ecut=    20.00 Ry     beta= 0.70
     Davidson diagonalization with overlap

---- Real-time Memory Report at c_bands before calling an iterative solver
           288 MiB given to the printing process from OS
             0 MiB allocation reported by mallinfo(arena+hblkhd)
         19261 MiB available memory on the node where the printing process lives
------------------
     ethr =  7.74E-07,  avg # of iterations =  5.0

     negative rho (up, down):  4.103E-03 0.000E+00

     add environment contribution to local potential

     total cpu time spent up to now is       13.6 secs

     total energy              =    -186.07682722 Ry
     estimated scf accuracy    <       0.00001721 Ry
     electrostatic embedding   =       0.00023362 Ry
     correction to one-el term =       4.84042568 Ry

     iteration # 13     ecut=    20.00 Ry     beta= 0.70
     Davidson diagonalization with overlap

---- Real-time Memory Report at c_bands before calling an iterative solver
           288 MiB given to the printing process from OS
             0 MiB allocation reported by mallinfo(arena+hblkhd)
         19260 MiB available memory on the node where the printing process lives
------------------
     ethr =  1.08E-07,  avg # of iterations =  2.0

     negative rho (up, down):  3.745E-03 0.000E+00

     add environment contribution to local potential

     total cpu time spent up to now is       14.8 secs

     total energy              =    -186.07683119 Ry
     estimated scf accuracy    <       0.00000340 Ry
     electrostatic embedding   =       0.00023639 Ry
     correction to one-el term =       4.87018191 Ry

     iteration # 14     ecut=    20.00 Ry     beta= 0.70
     Davidson diagonalization with overlap

---- Real-time Memory Report at c_bands before calling an iterative solver
           288 MiB given to the printing process from OS
             0 MiB allocation reported by mallinfo(arena+hblkhd)
         19259 MiB available memory on the node where the printing process lives
------------------
     ethr =  2.13E-08,  avg # of iterations =  2.0

     negative rho (up, down):  3.723E-03 0.000E+00

     add environment contribution to local potential

     total cpu time spent up to now is       15.8 secs

     total energy              =    -186.07683181 Ry
     estimated scf accuracy    <       0.00000113 Ry
     electrostatic embedding   =       0.00023732 Ry
     correction to one-el term =       4.88143449 Ry

     iteration # 15     ecut=    20.00 Ry     beta= 0.70
     Davidson diagonalization with overlap

---- Real-time Memory Report at c_bands before calling an iterative solver
           288 MiB given to the printing process from OS
             0 MiB allocation reported by mallinfo(arena+hblkhd)
         19260 MiB available memory on the node where the printing process lives
------------------
     ethr =  7.09E-09,  avg # of iterations =  2.0

     negative rho (up, down):  3.749E-03 0.000E+00

     add environment contribution to local potential

     total cpu time spent up to now is       16.8 secs

     total energy              =    -186.07683227 Ry
     estimated scf accuracy    <       0.00000015 Ry
     electrostatic embedding   =       0.00023770 Ry
     correction to one-el term =       4.88412444 Ry

     iteration # 16     ecut=    20.00 Ry     beta= 0.70
     Davidson diagonalization with overlap

---- Real-time Memory Report at c_bands before calling an iterative solver
           288 MiB given to the printing process from OS
             0 MiB allocation reported by mallinfo(arena+hblkhd)
         19258 MiB available memory on the node where the printing process lives
------------------
     ethr =  9.38E-10,  avg # of iterations =  4.0

     negative rho (up, down):  3.751E-03 0.000E+00

     add environment contribution to local potential

     total cpu time spent up to now is       17.9 secs

     total energy              =    -186.07683231 Ry
     estimated scf accuracy    <       0.00000002 Ry
     electrostatic embedding   =       0.00023771 Ry
     correction to one-el term =       4.88371033 Ry

     iteration # 17     ecut=    20.00 Ry     beta= 0.70
     Davidson diagonalization with overlap

---- Real-time Memory Report at c_bands before calling an iterative solver
           288 MiB given to the printing process from OS
             0 MiB allocation reported by mallinfo(arena+hblkhd)
         19259 MiB available memory on the node where the printing process lives
------------------
     ethr =  1.23E-10,  avg # of iterations =  4.0

     negative rho (up, down):  3.446E-03 0.000E+00

     the potential shift due to the Gaussian-smeared nuclei is    -0.1033 ev

     total cpu time spent up to now is       18.6 secs

     End of self-consistent calculation

          k = 0.0000 0.0000 0.0000 (  5049 PWs)   bands (ev):

   -19.4890 -17.2652 -14.0092 -10.5656 -10.5508 -10.0744  -9.1403  -8.0128
    -7.4507  -7.0050  -6.7187  -5.6460

     occupation numbers 
     1.0000   1.0000   1.0000   1.0000   1.0000   1.0000   1.0000   1.0000
     0.0000   0.0000   0.0000   0.0000

     the Fermi energy is    -8.0032 ev

     WARNING: integrated charge=    16.00000000, expected=    15.99900000

!    total energy              =    -186.07683250 Ry

     total all-electron energy =     -2319.460292 Ry
     estimated scf accuracy    <          3.1E-09 Ry
     smearing contrib. (-TS)   =       0.00000000 Ry
     internal energy E=F+TS    =    -186.07683250 Ry

     The total energy is F=E-TS. E is the sum of the following terms:
     one-electron contribution =    -420.78049959 Ry
     hartree contribution      =     210.10890243 Ry
     xc contribution           =     -24.23233993 Ry
     ewald contribution        =     186.30364135 Ry
     one-center paw contrib.   =    -142.36062284 Ry
      -> PAW hartree energy AE =      11.45962537 Ry
      -> PAW hartree energy PS =     -11.41411262 Ry
      -> PAW xc energy AE      =    -163.34663572 Ry
      -> PAW xc energy PS      =      20.94050013 Ry
      -> total E_H with PAW    =     210.15441518 Ry
      -> total E_XC with PAW   =    -166.63847552 Ry
     electrostatic embedding   =       0.00023773 Ry
     correction to one-el term =       4.88384835 Ry

     WARNING: you are using the parabolic pbc correction;
              the potential shift above must be added to 
              band and Fermi energies.

     convergence has been achieved in  17 iterations

     negative rho (up, down):  3.446E-03 0.000E+00
     The dielectric solvent contribution to forces
     atom    1 type  1   force =    -0.00000000   -0.00000000    0.00011618
     atom    2 type  1   force =    -0.00000000   -0.00000000   -0.00011914
     atom    3 type  1   force =    -0.00000000   -0.00000000   -0.00004070
     atom    4 type  1   force =    -0.00000000   -0.00000000    0.00003774


     Forces acting on atoms (cartesian axes, Ry/au):

     atom    1 type  1   force =     0.00000000    0.00000000    0.00498630
     atom    2 type  1   force =     0.00000000    0.00000000   -0.00498630
     atom    3 type  1   force =     0.00000000    0.00000000    0.00046823
     atom    4 type  1   force =     0.00000000    0.00000000   -0.00046823
     The non-local contrib.  to forces
     atom    1 type  1   force =     0.00000000    0.00000000   -0.01518313
     atom    2 type  1   force =     0.00000000    0.00000000    0.01518313
     atom    3 type  1   force =     0.00000000    0.00000000   -0.05441921
     atom    4 type  1   force =     0.00000000    0.00000000    0.05441921
     The ionic contribution  to forces
     atom    1 type  1   force =    -0.00000000   -0.00000000    8.79312658
     atom    2 type  1   force =    -0.00000000   -0.00000000   -8.79312658
     atom    3 type  1   force =     0.00000000    0.00000000   -2.98930598
     atom    4 type  1   force =    -0.00000000   -0.00000000    2.98930598
     The local contribution  to forces
     atom    1 type  1   force =     0.00000000   -0.00000000   -8.77257404
     atom    2 type  1   force =     0.00000000    0.00000000    8.77257404
     atom    3 type  1   force =    -0.00000000    0.00000000    3.03874369
     atom    4 type  1   force =     0.00000000   -0.00000000   -3.03874369
     The core correction contribution to forces
     atom    1 type  1   force =     0.00000000    0.00000000   -0.00046422
     atom    2 type  1   force =     0.00000000    0.00000000    0.00046422
     atom    3 type  1   force =    -0.00000000   -0.00000000    0.00546450
     atom    4 type  1   force =     0.00000000    0.00000000   -0.00546450
     The Hubbard contrib.    to forces
     atom    1 type  1   force =     0.00000000    0.00000000    0.00000000
     atom    2 type  1   force =     0.00000000    0.00000000    0.00000000
     atom    3 type  1   force =     0.00000000    0.00000000    0.00000000
     atom    4 type  1   force =     0.00000000    0.00000000    0.00000000
     The SCF correction term to forces
     atom    1 type  1   force =    -0.00000000    0.00000000   -0.00003649
     atom    2 type  1   force =    -0.00000000   -0.00000000    0.00003662
     atom    3 type  1   force =    -0.00000000    0.00000000    0.00002446
     atom    4 type  1   force =     0.00000000    0.00000000   -0.00002443

     Total force =     0.007083     Total SCF correction =     0.000062


     init_run     :      0.78s CPU      0.84s WALL (       1 calls)
     electrons    :     16.66s CPU     17.63s WALL (       1 calls)
     forces       :      0.22s CPU      0.25s WALL (       1 calls)

     Called by init_run:
     wfcinit      :      0.04s CPU      0.04s WALL (       1 calls)
     wfcinit:atom :      0.00s CPU      0.00s WALL (       1 calls)
     wfcinit:wfcr :      0.03s CPU      0.03s WALL (       1 calls)
     potinit      :      0.45s CPU      0.47s WALL (       1 calls)
     hinit0       :      0.21s CPU      0.22s WALL (       1 calls)

     Called by electrons:
     c_bands      :      1.32s CPU      1.37s WALL (      17 calls)
     sum_band     :      1.28s CPU      1.64s WALL (      17 calls)
     v_of_rho     :      0.54s CPU      0.54s WALL (      18 calls)
     v_h          :      0.02s CPU      0.02s WALL (      18 calls)
     v_xc         :      0.55s CPU      0.58s WALL (      19 calls)
     newd         :      0.91s CPU      1.26s WALL (      18 calls)
     PAW_pot      :      7.15s CPU      7.18s WALL (      18 calls)
     mix_rho      :      5.75s CPU      5.99s WALL (      17 calls)

     Called by c_bands:
     init_us_2    :      0.05s CPU      0.05s WALL (      35 calls)
     init_us_2:cp :      0.05s CPU      0.05s WALL (      35 calls)
     cegterg      :      1.16s CPU      1.19s WALL (      17 calls)

     Called by sum_band:
     sum_band:wei :      0.00s CPU      0.00s WALL (      17 calls)
     sum_band:loo :      0.20s CPU      0.20s WALL (      17 calls)
     sum_band:buf :      0.00s CPU      0.00s WALL (      17 calls)
     sum_band:ini :      0.02s CPU      0.02s WALL (      17 calls)
     sum_band:cal :      0.02s CPU      0.02s WALL (      17 calls)
     sum_band:bec :      0.00s CPU      0.00s WALL (      17 calls)
     addusdens    :      1.00s CPU      1.35s WALL (      17 calls)
     addusd:skk   :      0.01s CPU      0.01s WALL (      17 calls)
     addusd:dgemm :      0.10s CPU      0.40s WALL (      17 calls)
     addusd:qvan2 :      0.66s CPU      0.67s WALL (      17 calls)

     Called by *egterg:
     cdiaghg      :      0.01s CPU      0.01s WALL (      85 calls)
     cegterg:over :      0.03s CPU      0.03s WALL (      68 calls)
     cegterg:upda :      0.02s CPU      0.02s WALL (      68 calls)
     cegterg:last :      0.03s CPU      0.03s WALL (      38 calls)
     h_psi        :      1.00s CPU      1.04s WALL (      86 calls)
     s_psi        :      0.07s CPU      0.07s WALL (      86 calls)
     g_psi        :      0.01s CPU      0.01s WALL (      68 calls)

     Called by h_psi:
     h_psi:calbec :      0.07s CPU      0.07s WALL (      86 calls)
     vloc_psi     :      0.85s CPU      0.89s WALL (      86 calls)
     add_vuspsi   :      0.08s CPU      0.08s WALL (      86 calls)

     General routines
     calbec       :      0.09s CPU      0.09s WALL (     107 calls)
     fft          :      0.15s CPU      0.15s WALL (     209 calls)
     ffts         :      2.43s CPU      2.56s WALL (    3505 calls)
     fftw         :      0.89s CPU      0.92s WALL (    1324 calls)

     Parallel routines

     PAW routines
     PAW_pot      :      7.15s CPU      7.18s WALL (      18 calls)
     PAW_symme    :      0.01s CPU      0.01s WALL (      35 calls)

     Environ routines

     PWSCF        :     17.76s CPU     18.84s WALL


   This run was terminated on:  22:27:53   2May2022            

=------------------------------------------------------------------------------=
   JOB DONE.
=------------------------------------------------------------------------------=
