
     Program PWSCF v.6.7MaX starts on 26Sep2021 at 10: 7:59 

     This program is part of the open-source Quantum ESPRESSO suite
     for quantum simulation of materials; please cite
         "P. Giannozzi et al., J. Phys.:Condens. Matter 21 395502 (2009);
         "P. Giannozzi et al., J. Phys.:Condens. Matter 29 465901 (2017);
          URL http://www.quantum-espresso.org", 
     in publications or presentations arising from this work. More details at
     http://www.quantum-espresso.org/quote

     Parallel version (MPI), running on     1 processors

     MPI processes distributed on     1 nodes
     Waiting for input...
     Reading input from standard input

     Current dimensions of program PWSCF are:
     Max number of different atomic species (ntypx) = 10
     Max number of k-points (npk) =  40000
     Max angular momentum in pseudopotentials (lmaxx) =  3

     Reading input from environ.in

     ================================================================================

     Reading ENVIRON namelist

     Skipping BOUNDARY namelist

     Checking boundary derivatives
     derivatives               = chain          ! SCCS default

     Reading ELECTROSTATIC namelist

     Setting up electrostatic problem
     problem                   = poisson        
     solver                    = direct         

     Checking PBC correction

     Reading EXTERNAL_CHARGES card

     ================================================================================
 
     file C.pbe-rrkjus.UPF: wavefunction(s)  2S 2P renormalized
     file O.pbe-rrkjus.UPF: wavefunction(s)  2S renormalized

     Subspace diagonalization in iterative solution of the eigenvalue problem:
     a serial algorithm will be used

 
     G-vector sticks info
     --------------------
     sticks:   dense  smooth     PW     G-vecs:    dense   smooth      PW
     Sum        2205    1099    269               330909   116965   14571
 


     bravais-lattice index     =            8
     lattice parameter (alat)  =      10.6881  a.u.
     unit-cell volume          =    4181.1215 (a.u.)^3
     number of atoms/cell      =           10
     number of atomic types    =            3
     number of electrons       =        89.00
     number of Kohn-Sham states=           80
     kinetic-energy cutoff     =      35.0000  Ry
     charge density cutoff     =     280.0000  Ry
     scf convergence threshold =      5.0E-09
     mixing beta               =       0.2000
     number of iterations used =            8  plain     mixing
     Exchange-correlation= SLA  PW   PBE  PBE
                           (   1   4   3   4   0   0   0)
 

     Environ Module
     ==============

     Please cite
         O. Andreussi, I. Dabo and N. Marzari, J. Chem. Phys. 136, 064102 (2012)         
     in publications or presentations arising from this work.

     compensation onset threshold      =               0.1000E+01

     Electrostatic Setup
     -------------------
     electrostatic problem to solve    = poisson                 
     numerical solver adopted          = direct                  
     type of auxiliary density adopted = none                    
     type of core tool for poisson     = fft                     
     type of core tool for correction  = 1d-analytic             



     celldm(1)=  10.688100  celldm(2)=   0.866025  celldm(3)=   3.954220
     celldm(4)=   0.000000  celldm(5)=   0.000000  celldm(6)=   0.000000

     crystal axes: (cart. coord. in units of alat)
               a(1) = (   1.000000   0.000000   0.000000 )  
               a(2) = (   0.000000   0.866025   0.000000 )  
               a(3) = (   0.000000   0.000000   3.954220 )  

     reciprocal axes: (cart. coord. in units 2 pi/alat)
               b(1) = (  1.000000  0.000000  0.000000 )  
               b(2) = (  0.000000  1.154701  0.000000 )  
               b(3) = (  0.000000  0.000000  0.252894 )  


     PseudoPot. # 1 for C  read from file:
     /home/simplogic86/Work/QE1/pseudo/C.pbe-rrkjus.UPF
     MD5 check sum: c9ac5a99bc85b198593446162950cd17
     Pseudo is Ultrasoft, Zval =  4.0
     Generated by new atomic code, or converted to UPF format
     Using radial grid of  627 points,  4 beta functions with: 
                l(1) =   0
                l(2) =   0
                l(3) =   1
                l(4) =   1
     Q(r) pseudized with 0 coefficients 


     PseudoPot. # 2 for O  read from file:
     /home/simplogic86/Work/QE1/pseudo/O.pbe-rrkjus.UPF
     MD5 check sum: fadcf19ee70a498d3030e2e79cf929a4
     Pseudo is Ultrasoft, Zval =  6.0
     Generated by new atomic code, or converted to UPF format
     Using radial grid of 1269 points,  4 beta functions with: 
                l(1) =   0
                l(2) =   0
                l(3) =   1
                l(4) =   1
     Q(r) pseudized with 0 coefficients 


     PseudoPot. # 3 for Pt read from file:
     /home/simplogic86/Work/QE1/pseudo/Pt.pbe-nd-rrkjus.UPF
     MD5 check sum: b34016df742983190e94d0e746921a01
     Pseudo is Ultrasoft + core correction, Zval = 10.0
     Generated by new atomic code, or converted to UPF format
     Using radial grid of 1547 points,  3 beta functions with: 
                l(1) =   1
                l(2) =   2
                l(3) =   2
     Q(r) pseudized with 0 coefficients 


     atomic species   valence    mass     pseudopotential
        C              4.00     1.00000     C ( 1.00)
        O              6.00     1.00000     O ( 1.00)
        Pt            10.00     1.00000     Pt( 1.00)

     No symmetry found


                                    s                        frac. trans.

      isym =  1     identity                                     

 cryst.   s( 1) = (     1          0          0      )
                  (     0          1          0      )
                  (     0          0          1      )

 cart.    s( 1) = (  1.0000000  0.0000000  0.0000000 )
                  (  0.0000000  1.0000000  0.0000000 )
                  (  0.0000000  0.0000000  1.0000000 )


     point group C_1 (1)    
     there are  1 classes
     the character table:

       E    
A      1.00

     the symmetry operations in each class and the name of the first element:

     E        1
          identity                                               

   Cartesian axes

     site n.     atom                  positions (alat units)
         1           C   tau(   1) = (   0.4991611   0.4347567   1.2070461  )
         2           O   tau(   2) = (   0.4991542   0.4322212   1.4109013  )
         3           Pt  tau(   3) = (   0.7542339   0.0091745   0.8413229  )
         4           Pt  tau(   4) = (   0.2441023   0.0091745   0.8413226  )
         5           Pt  tau(   5) = (   0.0000034   0.4416918   0.8391348  )
         6           Pt  tau(   6) = (   0.4991682   0.4417635   0.8776299  )
         7           Pt  tau(   7) = (   0.0000038   0.7300598   0.4308181  )
         8           Pt  tau(   8) = (   0.4991683   0.7202168   0.4447460  )
         9           Pt  tau(   9) = (   0.2524172   0.2949237   0.4386572  )
        10           Pt  tau(  10) = (   0.7459196   0.2949237   0.4386575  )

   Crystallographic axes

     site n.     atom                  positions (cryst. coord.)
         1           C   tau(   1) = (  0.4991611  0.5020141  0.3052552  )
         2           O   tau(   2) = (  0.4991542  0.4990863  0.3568090  )
         3           Pt  tau(   3) = (  0.7542339  0.0105938  0.2127658  )
         4           Pt  tau(   4) = (  0.2441023  0.0105938  0.2127658  )
         5           Pt  tau(   5) = (  0.0000034  0.5100220  0.2122125  )
         6           Pt  tau(   6) = (  0.4991682  0.5101048  0.2219477  )
         7           Pt  tau(   7) = (  0.0000038  0.8430008  0.1089515  )
         8           Pt  tau(   8) = (  0.4991683  0.8316351  0.1124738  )
         9           Pt  tau(   9) = (  0.2524172  0.3405487  0.1109339  )
        10           Pt  tau(  10) = (  0.7459196  0.3405488  0.1109340  )

     number of k points=     1  Marzari-Vanderbilt smearing, width (Ry)=  0.0300
                       cart. coord. in units 2pi/alat
        k(    1) = (   0.0000000   0.0000000   0.0000000), wk =   2.0000000

                       cryst. coord.
        k(    1) = (   0.0000000   0.0000000   0.0000000), wk =   2.0000000

     Dense  grid:   330909 G-vectors     FFT dimensions: (  60,  50, 225)

     Smooth grid:   116965 G-vectors     FFT dimensions: (  45,  36, 160)

     Dynamical RAM for                 wfc:      17.85 MB

     Dynamical RAM for     wfc (w. buffer):      17.85 MB

     Dynamical RAM for           str. fact:      15.15 MB

     Dynamical RAM for           local pot:       0.00 MB

     Dynamical RAM for          nlocal pot:      26.77 MB

     Dynamical RAM for                qrad:       1.92 MB

     Dynamical RAM for          rho,v,vnew:      30.60 MB

     Dynamical RAM for               rhoin:      10.20 MB

     Dynamical RAM for            rho*nmix:      80.79 MB

     Dynamical RAM for           G-vectors:      19.83 MB

     Dynamical RAM for          h,s,v(r/c):       1.17 MB

     Dynamical RAM for          <psi|beta>:       0.15 MB

     Dynamical RAM for                 psi:      35.69 MB

     Dynamical RAM for                hpsi:      35.69 MB

     Dynamical RAM for                spsi:      35.69 MB

     Dynamical RAM for      wfcinit/wfcrot:      35.84 MB

     Dynamical RAM for           addusdens:     575.62 MB

     Dynamical RAM for          addusforce:     648.85 MB

     Estimated static dynamical RAM per process >     249.04 MB

     Estimated max dynamical RAM per process >     897.89 MB

     Check: negative core charge=   -0.000038

     Initial potential from superposition of free atoms

     starting charge   89.99875, renormalised to   89.00000

     negative rho (up, down):  7.106E-05 0.000E+00
     Starting wfcs are   56 randomized atomic wfcs +   24 random wfcs

     total cpu time spent up to now is        4.8 secs

     Self-consistent Calculation

     iteration #  1     ecut=    35.00 Ry     beta= 0.20
     Davidson diagonalization with overlap
     ethr =  1.00E-02,  avg # of iterations =  8.0

     negative rho (up, down):  7.304E-05 0.000E+00

     total cpu time spent up to now is        9.2 secs

     total energy              =    -735.17449213 Ry
     estimated scf accuracy    <       2.30979550 Ry
     electrostatic embedding   =       0.03381190 Ry
     correction to one-el term =       0.00000000 Ry

     iteration #  2     ecut=    35.00 Ry     beta= 0.20
     Davidson diagonalization with overlap
     ethr =  2.60E-03,  avg # of iterations =  2.0

     negative rho (up, down):  1.329E-04 0.000E+00

     total cpu time spent up to now is       12.6 secs

     total energy              =    -734.89092139 Ry
     estimated scf accuracy    <      17.11811999 Ry
     electrostatic embedding   =       0.03381190 Ry
     correction to one-el term =       0.00000000 Ry

     iteration #  3     ecut=    35.00 Ry     beta= 0.20
     Davidson diagonalization with overlap
     ethr =  2.60E-03,  avg # of iterations =  2.0

     negative rho (up, down):  1.045E-04 0.000E+00

     add environment contribution to local potential

     total cpu time spent up to now is       16.2 secs

     total energy              =    -735.53306258 Ry
     estimated scf accuracy    <       0.51751221 Ry
     electrostatic embedding   =       0.03381190 Ry
     correction to one-el term =       0.00000000 Ry

     iteration #  4     ecut=    35.00 Ry     beta= 0.20
     Davidson diagonalization with overlap
     ethr =  5.81E-04,  avg # of iterations =  9.0

     negative rho (up, down):  1.369E-04 0.000E+00

     add environment contribution to local potential

     total cpu time spent up to now is       19.7 secs

     total energy              =    -734.64522211 Ry
     estimated scf accuracy    <       0.42166265 Ry
     electrostatic embedding   =       0.96461888 Ry
     correction to one-el term =     144.08186043 Ry

     iteration #  5     ecut=    35.00 Ry     beta= 0.20
     Davidson diagonalization with overlap
     ethr =  4.74E-04,  avg # of iterations =  1.0

     negative rho (up, down):  1.337E-04 0.000E+00

     add environment contribution to local potential

     total cpu time spent up to now is       23.0 secs

     total energy              =    -734.61529575 Ry
     estimated scf accuracy    <       0.15154372 Ry
     electrostatic embedding   =       0.95301922 Ry
     correction to one-el term =     143.07248130 Ry

     iteration #  6     ecut=    35.00 Ry     beta= 0.20
     Davidson diagonalization with overlap
     ethr =  1.70E-04,  avg # of iterations =  5.0

     negative rho (up, down):  1.445E-04 0.000E+00

     add environment contribution to local potential

     total cpu time spent up to now is       27.2 secs

     total energy              =    -734.62424516 Ry
     estimated scf accuracy    <       0.02327674 Ry
     electrostatic embedding   =       0.93468781 Ry
     correction to one-el term =     141.46316016 Ry

     iteration #  7     ecut=    35.00 Ry     beta= 0.20
     Davidson diagonalization with overlap
     ethr =  2.62E-05,  avg # of iterations =  6.0

     negative rho (up, down):  1.814E-04 0.000E+00

     add environment contribution to local potential

     total cpu time spent up to now is       32.7 secs

     total energy              =    -734.62325528 Ry
     estimated scf accuracy    <       0.02636555 Ry
     electrostatic embedding   =       0.92858010 Ry
     correction to one-el term =     140.92519379 Ry

     iteration #  8     ecut=    35.00 Ry     beta= 0.20
     Davidson diagonalization with overlap
     ethr =  2.62E-05,  avg # of iterations =  2.0

     negative rho (up, down):  1.774E-04 0.000E+00

     add environment contribution to local potential

     total cpu time spent up to now is       37.5 secs

     total energy              =    -734.62322816 Ry
     estimated scf accuracy    <       0.00618670 Ry
     electrostatic embedding   =       0.92445448 Ry
     correction to one-el term =     140.55989884 Ry

     iteration #  9     ecut=    35.00 Ry     beta= 0.20
     Davidson diagonalization with overlap
     ethr =  6.95E-06,  avg # of iterations =  2.0

     negative rho (up, down):  1.767E-04 0.000E+00

     add environment contribution to local potential

     total cpu time spent up to now is       41.4 secs

     total energy              =    -734.62334906 Ry
     estimated scf accuracy    <       0.00127543 Ry
     electrostatic embedding   =       0.92557514 Ry
     correction to one-el term =     140.65971549 Ry

     iteration # 10     ecut=    35.00 Ry     beta= 0.20
     Davidson diagonalization with overlap
     ethr =  1.43E-06,  avg # of iterations = 10.0

     negative rho (up, down):  1.798E-04 0.000E+00

     add environment contribution to local potential

     total cpu time spent up to now is       45.5 secs

     total energy              =    -734.62354853 Ry
     estimated scf accuracy    <       0.00061598 Ry
     electrostatic embedding   =       0.92649753 Ry
     correction to one-el term =     140.74168582 Ry

     iteration # 11     ecut=    35.00 Ry     beta= 0.20
     Davidson diagonalization with overlap
     ethr =  6.92E-07,  avg # of iterations =  1.0

     negative rho (up, down):  1.753E-04 0.000E+00

     add environment contribution to local potential

     total cpu time spent up to now is       49.1 secs

     total energy              =    -734.62351092 Ry
     estimated scf accuracy    <       0.00113406 Ry
     electrostatic embedding   =       0.92619141 Ry
     correction to one-el term =     140.71484051 Ry

     iteration # 12     ecut=    35.00 Ry     beta= 0.20
     Davidson diagonalization with overlap
     ethr =  6.92E-07,  avg # of iterations =  1.0

     negative rho (up, down):  1.776E-04 0.000E+00

     add environment contribution to local potential

     total cpu time spent up to now is       52.6 secs

     total energy              =    -734.62348640 Ry
     estimated scf accuracy    <       0.00018501 Ry
     electrostatic embedding   =       0.92586430 Ry
     correction to one-el term =     140.68605060 Ry

     iteration # 13     ecut=    35.00 Ry     beta= 0.20
     Davidson diagonalization with overlap
     ethr =  2.08E-07,  avg # of iterations =  2.0

     negative rho (up, down):  1.776E-04 0.000E+00

     add environment contribution to local potential

     total cpu time spent up to now is       55.8 secs

     total energy              =    -734.62350749 Ry
     estimated scf accuracy    <       0.00001126 Ry
     electrostatic embedding   =       0.92547135 Ry
     correction to one-el term =     140.65145600 Ry

     iteration # 14     ecut=    35.00 Ry     beta= 0.20
     Davidson diagonalization with overlap
     ethr =  1.27E-08,  avg # of iterations =  2.0

     negative rho (up, down):  1.770E-04 0.000E+00

     add environment contribution to local potential

     total cpu time spent up to now is       59.9 secs

     total energy              =    -734.62350808 Ry
     estimated scf accuracy    <       0.00000521 Ry
     electrostatic embedding   =       0.92552174 Ry
     correction to one-el term =     140.65592570 Ry

     iteration # 15     ecut=    35.00 Ry     beta= 0.20
     Davidson diagonalization with overlap
     ethr =  5.86E-09,  avg # of iterations =  1.0

     negative rho (up, down):  1.766E-04 0.000E+00

     add environment contribution to local potential

     total cpu time spent up to now is       64.5 secs

     total energy              =    -734.62350821 Ry
     estimated scf accuracy    <       0.00000145 Ry
     electrostatic embedding   =       0.92552008 Ry
     correction to one-el term =     140.65578354 Ry

     iteration # 16     ecut=    35.00 Ry     beta= 0.20
     Davidson diagonalization with overlap
     ethr =  1.63E-09,  avg # of iterations =  1.0

     negative rho (up, down):  1.768E-04 0.000E+00

     add environment contribution to local potential

     total cpu time spent up to now is       68.1 secs

     total energy              =    -734.62350829 Ry
     estimated scf accuracy    <       0.00000041 Ry
     electrostatic embedding   =       0.92554063 Ry
     correction to one-el term =     140.65760361 Ry

     iteration # 17     ecut=    35.00 Ry     beta= 0.20
     Davidson diagonalization with overlap
     ethr =  4.63E-10,  avg # of iterations =  1.0

     negative rho (up, down):  1.768E-04 0.000E+00

     add environment contribution to local potential

     total cpu time spent up to now is       71.8 secs

     total energy              =    -734.62350831 Ry
     estimated scf accuracy    <       0.00000019 Ry
     electrostatic embedding   =       0.92554496 Ry
     correction to one-el term =     140.65798309 Ry

     iteration # 18     ecut=    35.00 Ry     beta= 0.20
     Davidson diagonalization with overlap
     ethr =  2.09E-10,  avg # of iterations =  1.0

     negative rho (up, down):  1.769E-04 0.000E+00

     add environment contribution to local potential

     total cpu time spent up to now is       76.0 secs

     total energy              =    -734.62350831 Ry
     estimated scf accuracy    <       0.00000009 Ry
     electrostatic embedding   =       0.92554368 Ry
     correction to one-el term =     140.65786827 Ry

     iteration # 19     ecut=    35.00 Ry     beta= 0.20
     Davidson diagonalization with overlap
     ethr =  1.06E-10,  avg # of iterations =  1.0

     negative rho (up, down):  1.771E-04 0.000E+00

     add environment contribution to local potential

     total cpu time spent up to now is       80.1 secs

     total energy              =    -734.62350832 Ry
     estimated scf accuracy    <       0.00000003 Ry
     electrostatic embedding   =       0.92553876 Ry
     correction to one-el term =     140.65743206 Ry

     iteration # 20     ecut=    35.00 Ry     beta= 0.20
     Davidson diagonalization with overlap
     ethr =  3.23E-11,  avg # of iterations =  1.0

     negative rho (up, down):  1.772E-04 0.000E+00

     add environment contribution to local potential

     total cpu time spent up to now is       84.1 secs

     total energy              =    -734.62350832 Ry
     estimated scf accuracy    <       0.00000001 Ry
     electrostatic embedding   =       0.92553416 Ry
     correction to one-el term =     140.65702424 Ry

     iteration # 21     ecut=    35.00 Ry     beta= 0.20
     Davidson diagonalization with overlap
     ethr =  1.16E-11,  avg # of iterations =  1.0

     negative rho (up, down):  1.774E-04 0.000E+00

     add environment contribution to local potential

     total cpu time spent up to now is       87.2 secs

     total energy              =    -734.62350832 Ry
     estimated scf accuracy    <       0.00000002 Ry
     electrostatic embedding   =       0.92553315 Ry
     correction to one-el term =     140.65693494 Ry

     iteration # 22     ecut=    35.00 Ry     beta= 0.20
     Davidson diagonalization with overlap
     ethr =  1.16E-11,  avg # of iterations =  1.0

     negative rho (up, down):  1.782E-04 0.000E+00

     the potential shift due to the Gaussian-smeared nuclei is    -0.4600 ev

     total cpu time spent up to now is       90.8 secs

     End of self-consistent calculation

          k = 0.0000 0.0000 0.0000 ( 14571 PWs)   bands (ev):

   -48.6561 -35.6229 -34.2852 -32.9489 -32.2381 -32.1311 -31.8282 -31.7923
   -31.6435 -31.0060 -30.9966 -30.7661 -30.6842 -30.6713 -30.5618 -30.4419
   -29.7139 -29.6670 -29.6017 -29.4637 -29.4137 -29.3992 -29.3476 -29.3203
   -29.3037 -29.1151 -29.0891 -28.9462 -28.8348 -28.6193 -28.5524 -27.7371
   -27.6481 -27.4175 -27.1608 -27.1117 -27.0502 -26.8921 -26.7217 -26.6252
   -26.4526 -26.4430 -26.2270 -26.2248 -26.1894 -26.0263 -25.8531 -24.6972
   -24.4586 -24.4269 -23.7115 -23.1458 -22.7945 -21.6178 -21.4722 -21.3245
   -20.3031 -19.8682 -18.8444 -18.5325 -18.4099 -17.8307 -17.4236 -17.1559
   -17.1250 -16.3203 -15.4585 -14.7191 -14.6077 -14.4337 -14.1907 -13.9306
   -13.6140 -13.5322 -13.0731 -12.6574 -12.5575 -12.2949 -11.9128 -11.8575

     occupation numbers 
     1.0000   1.0000   1.0000   1.0000   1.0000   1.0000   1.0000   1.0000
     1.0000   1.0000   1.0000   1.0000   1.0000   1.0000   1.0000   1.0000
     1.0000   1.0000   1.0000   1.0000   1.0000   1.0000   1.0000   1.0000
     1.0000   1.0000   1.0000   1.0000   1.0000   1.0000   1.0000   1.0000
     1.0000   1.0004   1.0067   1.0101   1.0164   1.0439   1.0793   1.0808
     0.9891   0.9794   0.6507   0.6467   0.5814   0.3033   0.1118   0.0000
     0.0000   0.0000   0.0000   0.0000   0.0000   0.0000   0.0000   0.0000
     0.0000   0.0000   0.0000   0.0000   0.0000   0.0000   0.0000   0.0000
     0.0000   0.0000   0.0000   0.0000   0.0000   0.0000   0.0000   0.0000
     0.0000   0.0000   0.0000   0.0000   0.0000   0.0000   0.0000   0.0000

     the Fermi energy is   -26.0881 ev

!    total energy              =    -734.62350832 Ry
     estimated scf accuracy    <          4.2E-09 Ry
     smearing contrib. (-TS)   =      -0.00037518 Ry
     internal energy E=F+TS    =    -734.62313314 Ry

     The total energy is F=E-TS. E is the sum of the following terms:
     one-electron contribution =   -4076.52333024 Ry
     hartree contribution      =    2005.74732325 Ry
     xc contribution           =    -378.63397230 Ry
     ewald contribution        =    1573.20467954 Ry
     electrostatic embedding   =       0.92552978 Ry
     correction to one-el term =     140.65663684 Ry

     WARNING: you are using the parabolic pbc correction;
              the potential shift above must be added to 
              band and Fermi energies.

     convergence has been achieved in  22 iterations

     negative rho (up, down):  1.782E-04 0.000E+00
     The global environment contribution to forces
     atom    1 type  1   force =    -0.00000000    0.00000000   -0.00110627
     atom    2 type  2   force =     0.00000000    0.00000000   -0.00165941
     atom    3 type  3   force =    -0.00000000    0.00000000   -0.00276568
     atom    4 type  3   force =     0.00000000    0.00000000   -0.00276568
     atom    5 type  3   force =    -0.00000000    0.00000000   -0.00276568
     atom    6 type  3   force =    -0.00000000    0.00000000   -0.00276568
     atom    7 type  3   force =    -0.00000000    0.00000000   -0.00276568
     atom    8 type  3   force =     0.00000000    0.00000000   -0.00276568
     atom    9 type  3   force =    -0.00000000    0.00000000   -0.00276568
     atom   10 type  3   force =     0.00000000    0.00000000   -0.00276568
 

     Forces acting on atoms (cartesian axes, Ry/au):

     atom    1 type  1   force =    -0.00000608   -0.00412658   -0.00249739
     atom    2 type  2   force =     0.00010018    0.00152810   -0.32958573
     atom    3 type  3   force =    -0.00085510    0.01330367   -0.04159140
     atom    4 type  3   force =     0.00190947    0.01359666   -0.04091349
     atom    5 type  3   force =    -0.00184049    0.01272032   -0.07495321
     atom    6 type  3   force =     0.00075651    0.00796691   -0.07014529
     atom    7 type  3   force =    -0.00159290   -0.01416462    0.13863762
     atom    8 type  3   force =     0.00046381   -0.01790544    0.14873025
     atom    9 type  3   force =     0.01621869   -0.00664575    0.13592387
     atom   10 type  3   force =    -0.01515409   -0.00627328    0.13639476
     The non-local contrib.  to forces
     atom    1 type  1   force =    -0.00007572   -0.00617080    0.51248745
     atom    2 type  2   force =     0.00024250    0.04107710   -3.25337345
     atom    3 type  3   force =    -0.02646704   -0.00137870   -0.10313649
     atom    4 type  3   force =     0.02659483   -0.00121365   -0.10356293
     atom    5 type  3   force =     0.00096614    0.00389916   -0.15507977
     atom    6 type  3   force =    -0.00082073   -0.01655511    0.48096172
     atom    7 type  3   force =     0.00059391    0.02312833    0.07604403
     atom    8 type  3   force =    -0.00091053   -0.01739357    0.10099798
     atom    9 type  3   force =     0.01722052   -0.00295732    0.06289694
     atom   10 type  3   force =    -0.01711138   -0.00262901    0.06174830
     The ionic contribution  to forces
     atom    1 type  1   force =     0.00636806    0.05296760   19.96835427
     atom    2 type  2   force =     0.00226724   -0.13041391   48.33963012
     atom    3 type  3   force =     0.50324609   -0.09020628   30.03736972
     atom    4 type  3   force =    -0.49292694   -0.08303178   30.06216876
     atom    5 type  3   force =    -0.07802400    0.12039865   29.68099553
     atom    6 type  3   force =     0.05586768    0.10046245   29.12582959
     atom    7 type  3   force =    -0.06942211   -0.08855591  -48.10896481
     atom    8 type  3   force =     0.05843526    0.13450123  -45.70999247
     atom    9 type  3   force =     0.08482129   -0.01166389  -46.71013044
     atom   10 type  3   force =    -0.07063256   -0.00445817  -46.68526027
     The local contribution  to forces
     atom    1 type  1   force =    -0.00630511   -0.05090858  -20.48208622
     atom    2 type  2   force =    -0.00241614    0.09088181  -45.41403324
     atom    3 type  3   force =    -0.48023603    0.10833645  -29.96530231
     atom    4 type  3   force =     0.47102207    0.10121738  -29.98914242
     atom    5 type  3   force =     0.07477913   -0.10786140  -29.59496666
     atom    6 type  3   force =    -0.05403039   -0.07211700  -29.74420067
     atom    7 type  3   force =     0.06675650    0.04333831   48.15889773
     atom    8 type  3   force =    -0.05671278   -0.13067346   45.74287678
     atom    9 type  3   force =    -0.09289638    0.00376126   46.76854603
     atom   10 type  3   force =     0.07984792   -0.00343120   46.74516454
     The core correction contribution to forces
     atom    1 type  1   force =     0.00000000    0.00000000    0.00000000
     atom    2 type  2   force =     0.00000000    0.00000000    0.00000000
     atom    3 type  3   force =     0.00260794   -0.00343996   -0.00771734
     atom    4 type  3   force =    -0.00279898   -0.00336667   -0.00757296
     atom    5 type  3   force =     0.00043358   -0.00369758   -0.00310000
     atom    6 type  3   force =    -0.00026853   -0.00381019    0.07006182
     atom    7 type  3   force =     0.00047502    0.00793911    0.01544049
     atom    8 type  3   force =    -0.00035748   -0.00431957    0.01762858
     atom    9 type  3   force =     0.00706993    0.00422762    0.01739555
     atom   10 type  3   force =    -0.00726773    0.00425877    0.01752739
     The Hubbard contrib.    to forces
     atom    1 type  1   force =     0.00000000    0.00000000    0.00000000
     atom    2 type  2   force =     0.00000000    0.00000000    0.00000000
     atom    3 type  3   force =     0.00000000    0.00000000    0.00000000
     atom    4 type  3   force =     0.00000000    0.00000000    0.00000000
     atom    5 type  3   force =     0.00000000    0.00000000    0.00000000
     atom    6 type  3   force =     0.00000000    0.00000000    0.00000000
     atom    7 type  3   force =     0.00000000    0.00000000    0.00000000
     atom    8 type  3   force =     0.00000000    0.00000000    0.00000000
     atom    9 type  3   force =     0.00000000    0.00000000    0.00000000
     atom   10 type  3   force =     0.00000000    0.00000000    0.00000000
     The SCF correction term to forces
     atom    1 type  1   force =     0.00000028   -0.00000134   -0.00001684
     atom    2 type  2   force =     0.00000017   -0.00000343   -0.00001998
     atom    3 type  3   force =    -0.00001248    0.00000563    0.00009047
     atom    4 type  3   force =     0.00001207    0.00000485    0.00009151
     atom    5 type  3   force =    -0.00000176   -0.00000504    0.00009315
     atom    6 type  3   force =     0.00000207    0.00000023    0.00009771
     atom    7 type  3   force =    -0.00000264   -0.00000098    0.00011564
     atom    8 type  3   force =     0.00000295   -0.00000659    0.00011485
     atom    9 type  3   force =    -0.00000307    0.00000006    0.00011125
     atom   10 type  3   force =     0.00000326   -0.00000020    0.00011025

     Total force =     0.450233     Total SCF correction =     0.000295

     Writing output data file /home/simplogic86/Work/QE1/tempdir/PtCO_helmholtz_vacuum.save/
 
     init_run     :      4.56s CPU      4.77s WALL (       1 calls)
     electrons    :     78.07s CPU     86.05s WALL (       1 calls)
     forces       :      2.93s CPU      3.19s WALL (       1 calls)

     Called by init_run:
     wfcinit      :      0.48s CPU      0.50s WALL (       1 calls)
     wfcinit:atom :      0.00s CPU      0.00s WALL (       1 calls)
     wfcinit:wfcr :      0.46s CPU      0.48s WALL (       1 calls)
     potinit      :      0.90s CPU      0.94s WALL (       1 calls)
     hinit0       :      2.53s CPU      2.54s WALL (       1 calls)

     Called by electrons:
     c_bands      :     34.43s CPU     35.33s WALL (      22 calls)
     sum_band     :     22.15s CPU     24.81s WALL (      22 calls)
     v_of_rho     :      6.23s CPU      7.00s WALL (      23 calls)
     v_h          :      0.26s CPU      0.26s WALL (      23 calls)
     v_xc         :      6.26s CPU      7.08s WALL (      24 calls)
     newd         :     12.13s CPU     15.87s WALL (      23 calls)
     mix_rho      :      0.91s CPU      0.93s WALL (      22 calls)

     Called by c_bands:
     init_us_2    :      0.28s CPU      0.29s WALL (      45 calls)
     cegterg      :     32.83s CPU     33.73s WALL (      22 calls)

     Called by sum_band:
     sum_band:wei :      0.00s CPU      0.00s WALL (      22 calls)
     sum_band:loo :      6.30s CPU      6.40s WALL (      22 calls)
     sum_band:buf :      0.00s CPU      0.00s WALL (      22 calls)
     sum_band:ini :      0.14s CPU      0.15s WALL (      22 calls)
     sum_band:cal :      0.67s CPU      0.67s WALL (      22 calls)
     sum_band:bec :      0.00s CPU      0.00s WALL (      22 calls)
     addusdens    :     15.52s CPU     18.07s WALL (      22 calls)
     addusd:skk   :      0.23s CPU      0.36s WALL (      66 calls)
     addusd:dgemm :      1.98s CPU      4.15s WALL (      66 calls)
     addusd:qvan2 :     12.32s CPU     12.39s WALL (      66 calls)

     Called by *egterg:
     cdiaghg      :      0.43s CPU      0.43s WALL (      83 calls)
     cegterg:over :      2.13s CPU      2.15s WALL (      61 calls)
     cegterg:upda :      1.18s CPU      1.25s WALL (      61 calls)
     cegterg:last :      2.21s CPU      2.21s WALL (      35 calls)
     h_psi        :     24.43s CPU     25.09s WALL (      84 calls)
     s_psi        :      1.47s CPU      1.50s WALL (      84 calls)
     g_psi        :      0.08s CPU      0.08s WALL (      61 calls)

     Called by h_psi:
     h_psi:calbec :      1.45s CPU      1.45s WALL (      84 calls)
     vloc_psi     :     21.34s CPU     21.94s WALL (      84 calls)
     add_vuspsi   :      1.51s CPU      1.51s WALL (      84 calls)

     General routines
     calbec       :      2.27s CPU      2.29s WALL (     110 calls)
     fft          :      2.06s CPU      2.13s WALL (     308 calls)
     ffts         :      0.11s CPU      0.11s WALL (      45 calls)
     fftw         :     23.30s CPU     23.97s WALL (    9508 calls)
     interpolate  :      0.25s CPU      0.26s WALL (      23 calls)
 
     Parallel routines
 
     Environ routines
 
     PWSCF        :   1m25.62s CPU   1m34.11s WALL

 
   This run was terminated on:  10: 9:33  26Sep2021            

=------------------------------------------------------------------------------=
   JOB DONE.
=------------------------------------------------------------------------------=
