
     Program PWSCF v.6.1 (svn rev. 13369) starts on 29Jan2018 at 15:34:45 

     This program is part of the open-source Quantum ESPRESSO suite
     for quantum simulation of materials; please cite
         "P. Giannozzi et al., J. Phys.:Condens. Matter 21 395502 (2009);
          URL http://www.quantum-espresso.org", 
     in publications or presentations arising from this work. More details at
     http://www.quantum-espresso.org/quote

     Parallel version (MPI), running on     1 processors
     Waiting for input...
     Reading input from standard input

     Current dimensions of program PWSCF are:
     Max number of different atomic species (ntypx) = 10
     Max number of k-points (npk) =  40000
     Max angular momentum in pseudopotentials (lmaxx) =  3
               file C.pbe-rrkjus.UPF: wavefunction(s)  2S 2P renormalized
               file O.pbe-rrkjus.UPF: wavefunction(s)  2S renormalized

     Subspace diagonalization in iterative solution of the eigenvalue problem:
     a serial algorithm will be used

 
     G-vector sticks info
     --------------------
     sticks:   dense  smooth     PW     G-vecs:    dense   smooth      PW
     Sum        2205    1099    269               330909   116965   14571
 


     bravais-lattice index     =            8
     lattice parameter (alat)  =      10.6881  a.u.
     unit-cell volume          =    4181.1215 (a.u.)^3
     number of atoms/cell      =           10
     number of atomic types    =            3
     number of electrons       =        89.00
     number of Kohn-Sham states=           80
     kinetic-energy cutoff     =      35.0000  Ry
     charge density cutoff     =     280.0000  Ry
     convergence threshold     =      5.0E-09
     mixing beta               =       0.2000
     number of iterations used =            8  plain     mixing
     Exchange-correlation      =  SLA  PW   PBE  PBE ( 1  4  3  4 0 0)
 

     Environ Module
     ==============

     Plese cite
         O. Andreussi, I. Dabo and N. Marzari, J. Chem. Phys. 136, 064102 (2012)         
     in publications or presentations arising from this work.

     compensation onset threshold      =               0.1000E+01 

     Electrostatic Setup
     -------------------
     electrostatic problem to solve    = poisson                  
     numerical solver adopted          = direct                   
     type of auxiliary density adopted = none                     
     type of core tool for poisson     = fft                      
     type of core tool for s(r) deriv  = analytic                 



     celldm(1)=  10.688100  celldm(2)=   0.866025  celldm(3)=   3.954220
     celldm(4)=   0.000000  celldm(5)=   0.000000  celldm(6)=   0.000000

     crystal axes: (cart. coord. in units of alat)
               a(1) = (   1.000000   0.000000   0.000000 )  
               a(2) = (   0.000000   0.866025   0.000000 )  
               a(3) = (   0.000000   0.000000   3.954220 )  

     reciprocal axes: (cart. coord. in units 2 pi/alat)
               b(1) = (  1.000000  0.000000  0.000000 )  
               b(2) = (  0.000000  1.154701  0.000000 )  
               b(3) = (  0.000000  0.000000  0.252894 )  


     PseudoPot. # 1 for C  read from file:
     /home/fnattino/Programs/qe-6.1/pseudo/C.pbe-rrkjus.UPF
     MD5 check sum: 00fb224312de0c5b6853bd333518df6f
     Pseudo is Ultrasoft, Zval =  4.0
     Generated by new atomic code, or converted to UPF format
     Using radial grid of  627 points,  4 beta functions with: 
                l(1) =   0
                l(2) =   0
                l(3) =   1
                l(4) =   1
     Q(r) pseudized with 0 coefficients 


     PseudoPot. # 2 for O  read from file:
     /home/fnattino/Programs/qe-6.1/pseudo/O.pbe-rrkjus.UPF
     MD5 check sum: 390ba29e75625707450f3bd3f0eb6be9
     Pseudo is Ultrasoft, Zval =  6.0
     Generated by new atomic code, or converted to UPF format
     Using radial grid of 1269 points,  4 beta functions with: 
                l(1) =   0
                l(2) =   0
                l(3) =   1
                l(4) =   1
     Q(r) pseudized with 0 coefficients 


     PseudoPot. # 3 for Pt read from file:
     /home/fnattino/Programs/qe-6.1/pseudo/Pt.pbe-nd-rrkjus.UPF
     MD5 check sum: 1413c21c79e416b56dc03f2d0e22670c
     Pseudo is Ultrasoft + core correction, Zval = 10.0
     Generated by new atomic code, or converted to UPF format
     Using radial grid of 1547 points,  3 beta functions with: 
                l(1) =   1
                l(2) =   2
                l(3) =   2
     Q(r) pseudized with 0 coefficients 


     atomic species   valence    mass     pseudopotential
        C              4.00     1.00000     C ( 1.00)
        O              6.00     1.00000     O ( 1.00)
        Pt            10.00     1.00000     Pt( 1.00)

     No symmetry found


                                    s                        frac. trans.

      isym =  1     identity                                     

 cryst.   s( 1) = (     1          0          0      )
                  (     0          1          0      )
                  (     0          0          1      )

 cart.    s( 1) = (  1.0000000  0.0000000  0.0000000 )
                  (  0.0000000  1.0000000  0.0000000 )
                  (  0.0000000  0.0000000  1.0000000 )


     point group C_1 (1)    
     there are  1 classes
     the character table:

       E    
A      1.00

     the symmetry operations in each class and the name of the first element:

     E        1
          identity                                               

   Cartesian axes

     site n.     atom                  positions (alat units)
         1           C   tau(   1) = (   0.4991611   0.4347567   1.2070461  )
         2           O   tau(   2) = (   0.4991542   0.4322212   1.4109013  )
         3           Pt  tau(   3) = (   0.7542339   0.0091745   0.8413229  )
         4           Pt  tau(   4) = (   0.2441023   0.0091745   0.8413226  )
         5           Pt  tau(   5) = (   0.0000034   0.4416918   0.8391348  )
         6           Pt  tau(   6) = (   0.4991682   0.4417635   0.8776299  )
         7           Pt  tau(   7) = (   0.0000038   0.7300598   0.4308181  )
         8           Pt  tau(   8) = (   0.4991683   0.7202168   0.4447460  )
         9           Pt  tau(   9) = (   0.2524172   0.2949237   0.4386572  )
        10           Pt  tau(  10) = (   0.7459196   0.2949237   0.4386575  )

   Crystallographic axes

     site n.     atom                  positions (cryst. coord.)
         1           C   tau(   1) = (  0.4991611  0.5020141  0.3052552  )
         2           O   tau(   2) = (  0.4991542  0.4990863  0.3568090  )
         3           Pt  tau(   3) = (  0.7542339  0.0105938  0.2127658  )
         4           Pt  tau(   4) = (  0.2441023  0.0105938  0.2127658  )
         5           Pt  tau(   5) = (  0.0000034  0.5100220  0.2122125  )
         6           Pt  tau(   6) = (  0.4991682  0.5101048  0.2219477  )
         7           Pt  tau(   7) = (  0.0000038  0.8430008  0.1089515  )
         8           Pt  tau(   8) = (  0.4991683  0.8316351  0.1124738  )
         9           Pt  tau(   9) = (  0.2524172  0.3405487  0.1109339  )
        10           Pt  tau(  10) = (  0.7459196  0.3405488  0.1109340  )

     number of k points=     1  Marzari-Vanderbilt smearing, width (Ry)=  0.0300
                       cart. coord. in units 2pi/alat
        k(    1) = (   0.0000000   0.0000000   0.0000000), wk =   2.0000000

                       cryst. coord.
        k(    1) = (   0.0000000   0.0000000   0.0000000), wk =   2.0000000

     Dense  grid:   330909 G-vectors     FFT dimensions: (  60,  50, 225)

     Smooth grid:   116965 G-vectors     FFT dimensions: (  45,  36, 160)

     Estimated max dynamical RAM per process >     378.02MB

     Check: negative/imaginary core charge=   -0.000038    0.000000

     Initial potential from superposition of free atoms

     starting charge   89.99875, renormalised to   89.00000

     negative rho (up, down):  7.106E-05 0.000E+00
     Starting wfc are   56 randomized atomic wfcs +   24 random wfc

     total cpu time spent up to now is        5.5 secs

     per-process dynamical memory:   232.7 Mb

     Self-consistent Calculation

     iteration #  1     ecut=    35.00 Ry     beta=0.20
     Davidson diagonalization with overlap
     ethr =  1.00E-02,  avg # of iterations =  7.0

     negative rho (up, down):  7.727E-05 0.000E+00

     total cpu time spent up to now is        9.4 secs

     total energy              =    -735.17261808 Ry
     Harris-Foulkes estimate   =    -735.95156912 Ry
     estimated scf accuracy    <       2.31915284 Ry
     electrostatic embedding   =       0.03381190 Ry
     correction to one-el term =       0.00000000 Ry

     iteration #  2     ecut=    35.00 Ry     beta=0.20
     Davidson diagonalization with overlap
     ethr =  2.61E-03,  avg # of iterations =  4.0

     negative rho (up, down):  1.372E-04 0.000E+00

     total cpu time spent up to now is       12.2 secs

     total energy              =    -734.88816035 Ry
     Harris-Foulkes estimate   =    -736.43440607 Ry
     estimated scf accuracy    <      17.12182875 Ry
     electrostatic embedding   =       0.03381190 Ry
     correction to one-el term =       0.00000000 Ry

     iteration #  3     ecut=    35.00 Ry     beta=0.20
     Davidson diagonalization with overlap
     ethr =  2.61E-03,  avg # of iterations =  2.0

     negative rho (up, down):  1.084E-04 0.000E+00

     add environment contribution to local potential

     total cpu time spent up to now is       15.0 secs

     total energy              =    -735.53279167 Ry
     Harris-Foulkes estimate   =    -735.65117395 Ry
     estimated scf accuracy    <       0.52332249 Ry
     electrostatic embedding   =       0.03381190 Ry
     correction to one-el term =       0.00000000 Ry

     iteration #  4     ecut=    35.00 Ry     beta=0.20
     Davidson diagonalization with overlap
     ethr =  5.88E-04,  avg # of iterations =  7.0

     negative rho (up, down):  1.405E-04 0.000E+00

     add environment contribution to local potential

     total cpu time spent up to now is       18.1 secs

     total energy              =    -734.64519468 Ry
     Harris-Foulkes estimate   =    -879.74462348 Ry
     estimated scf accuracy    <       0.41993678 Ry
     electrostatic embedding   =       0.96464073 Ry
     correction to one-el term =     144.08362718 Ry

     iteration #  5     ecut=    35.00 Ry     beta=0.20
     Davidson diagonalization with overlap
     ethr =  4.72E-04,  avg # of iterations =  1.0

     negative rho (up, down):  1.365E-04 0.000E+00

     add environment contribution to local potential

     total cpu time spent up to now is       20.8 secs

     total energy              =    -734.61475128 Ry
     Harris-Foulkes estimate   =    -878.68431384 Ry
     estimated scf accuracy    <       0.15260660 Ry
     electrostatic embedding   =       0.95305886 Ry
     correction to one-el term =     143.07590572 Ry

     iteration #  6     ecut=    35.00 Ry     beta=0.20
     Davidson diagonalization with overlap
     ethr =  1.71E-04,  avg # of iterations =  3.0

     negative rho (up, down):  1.464E-04 0.000E+00

     add environment contribution to local potential

     total cpu time spent up to now is       23.7 secs

     total energy              =    -734.62400500 Ry
     Harris-Foulkes estimate   =    -877.01973679 Ry
     estimated scf accuracy    <       0.02303941 Ry
     electrostatic embedding   =       0.93460259 Ry
     correction to one-el term =     141.45562119 Ry

     iteration #  7     ecut=    35.00 Ry     beta=0.20
     Davidson diagonalization with overlap
     ethr =  2.59E-05,  avg # of iterations =  8.0

     negative rho (up, down):  1.807E-04 0.000E+00

     add environment contribution to local potential

     total cpu time spent up to now is       26.9 secs

     total energy              =    -734.62311950 Ry
     Harris-Foulkes estimate   =    -876.47722052 Ry
     estimated scf accuracy    <       0.02518927 Ry
     electrostatic embedding   =       0.92854873 Ry
     correction to one-el term =     140.92238318 Ry

     iteration #  8     ecut=    35.00 Ry     beta=0.20
     Davidson diagonalization with overlap
     ethr =  2.59E-05,  avg # of iterations =  1.0

     negative rho (up, down):  1.777E-04 0.000E+00

     add environment contribution to local potential

     total cpu time spent up to now is       29.6 secs

     total energy              =    -734.62295902 Ry
     Harris-Foulkes estimate   =    -876.10820973 Ry
     estimated scf accuracy    <       0.00668317 Ry
     electrostatic embedding   =       0.92444878 Ry
     correction to one-el term =     140.55950284 Ry

     iteration #  9     ecut=    35.00 Ry     beta=0.20
     Davidson diagonalization with overlap
     ethr =  7.51E-06,  avg # of iterations =  5.0

     negative rho (up, down):  1.761E-04 0.000E+00

     add environment contribution to local potential

     total cpu time spent up to now is       32.5 secs

     total energy              =    -734.62305361 Ry
     Harris-Foulkes estimate   =    -876.20106207 Ry
     estimated scf accuracy    <       0.00114571 Ry
     electrostatic embedding   =       0.92549115 Ry
     correction to one-el term =     140.65216236 Ry

     iteration # 10     ecut=    35.00 Ry     beta=0.20
     Davidson diagonalization with overlap
     ethr =  1.29E-06,  avg # of iterations =  4.0

     negative rho (up, down):  1.773E-04 0.000E+00

     add environment contribution to local potential

     total cpu time spent up to now is       35.4 secs

     total energy              =    -734.62321766 Ry
     Harris-Foulkes estimate   =    -876.29441474 Ry
     estimated scf accuracy    <       0.00099207 Ry
     electrostatic embedding   =       0.92652994 Ry
     correction to one-el term =     140.74455722 Ry

     iteration # 11     ecut=    35.00 Ry     beta=0.20
     Davidson diagonalization with overlap
     ethr =  1.11E-06,  avg # of iterations =  1.0

     negative rho (up, down):  1.757E-04 0.000E+00

     add environment contribution to local potential

     total cpu time spent up to now is       38.1 secs

     total energy              =    -734.62323471 Ry
     Harris-Foulkes estimate   =    -876.25849649 Ry
     estimated scf accuracy    <       0.00135178 Ry
     electrostatic embedding   =       0.92612703 Ry
     correction to one-el term =     140.70905796 Ry

     iteration # 12     ecut=    35.00 Ry     beta=0.20
     Davidson diagonalization with overlap
     ethr =  1.11E-06,  avg # of iterations =  1.0

     negative rho (up, down):  1.778E-04 0.000E+00

     add environment contribution to local potential

     total cpu time spent up to now is       40.9 secs

     total energy              =    -734.62320806 Ry
     Harris-Foulkes estimate   =    -876.23540380 Ry
     estimated scf accuracy    <       0.00019533 Ry
     electrostatic embedding   =       0.92586694 Ry
     correction to one-el term =     140.68628022 Ry

     iteration # 13     ecut=    35.00 Ry     beta=0.20
     Davidson diagonalization with overlap
     ethr =  2.19E-07,  avg # of iterations =  2.0

     negative rho (up, down):  1.767E-04 0.000E+00

     add environment contribution to local potential

     total cpu time spent up to now is       43.7 secs

     total energy              =    -734.62322844 Ry
     Harris-Foulkes estimate   =    -876.20119697 Ry
     estimated scf accuracy    <       0.00001274 Ry
     electrostatic embedding   =       0.92548312 Ry
     correction to one-el term =     140.65248294 Ry

     iteration # 14     ecut=    35.00 Ry     beta=0.20
     Davidson diagonalization with overlap
     ethr =  1.43E-08,  avg # of iterations =  1.0

     negative rho (up, down):  1.769E-04 0.000E+00

     add environment contribution to local potential

     total cpu time spent up to now is       46.5 secs

     total energy              =    -734.62322912 Ry
     Harris-Foulkes estimate   =    -876.20415531 Ry
     estimated scf accuracy    <       0.00002128 Ry
     electrostatic embedding   =       0.92551601 Ry
     correction to one-el term =     140.65540859 Ry

     iteration # 15     ecut=    35.00 Ry     beta=0.20
     Davidson diagonalization with overlap
     ethr =  1.43E-08,  avg # of iterations =  1.0

     negative rho (up, down):  1.768E-04 0.000E+00

     add environment contribution to local potential

     total cpu time spent up to now is       49.2 secs

     total energy              =    -734.62322977 Ry
     Harris-Foulkes estimate   =    -876.20442126 Ry
     estimated scf accuracy    <       0.00000134 Ry
     electrostatic embedding   =       0.92551880 Ry
     correction to one-el term =     140.65567250 Ry

     iteration # 16     ecut=    35.00 Ry     beta=0.20
     Davidson diagonalization with overlap
     ethr =  1.51E-09,  avg # of iterations =  2.0

     negative rho (up, down):  1.768E-04 0.000E+00

     add environment contribution to local potential

     total cpu time spent up to now is       52.0 secs

     total energy              =    -734.62322986 Ry
     Harris-Foulkes estimate   =    -876.20666633 Ry
     estimated scf accuracy    <       0.00000027 Ry
     electrostatic embedding   =       0.92554390 Ry
     correction to one-el term =     140.65789256 Ry

     iteration # 17     ecut=    35.00 Ry     beta=0.20
     Davidson diagonalization with overlap
     ethr =  3.00E-10,  avg # of iterations =  1.0

     negative rho (up, down):  1.768E-04 0.000E+00

     add environment contribution to local potential

     total cpu time spent up to now is       54.7 secs

     total energy              =    -734.62322987 Ry
     Harris-Foulkes estimate   =    -876.20680959 Ry
     estimated scf accuracy    <       0.00000017 Ry
     electrostatic embedding   =       0.92554554 Ry
     correction to one-el term =     140.65803417 Ry

     iteration # 18     ecut=    35.00 Ry     beta=0.20
     Davidson diagonalization with overlap
     ethr =  1.91E-10,  avg # of iterations =  1.0

     negative rho (up, down):  1.769E-04 0.000E+00

     add environment contribution to local potential

     total cpu time spent up to now is       57.5 secs

     total energy              =    -734.62322987 Ry
     Harris-Foulkes estimate   =    -876.20667136 Ry
     estimated scf accuracy    <       0.00000009 Ry
     electrostatic embedding   =       0.92554401 Ry
     correction to one-el term =     140.65789746 Ry

     iteration # 19     ecut=    35.00 Ry     beta=0.20
     Davidson diagonalization with overlap
     ethr =  1.03E-10,  avg # of iterations =  1.0

     negative rho (up, down):  1.771E-04 0.000E+00

     add environment contribution to local potential

     total cpu time spent up to now is       60.2 secs

     total energy              =    -734.62322988 Ry
     Harris-Foulkes estimate   =    -876.20610026 Ry
     estimated scf accuracy    <       0.00000004 Ry
     electrostatic embedding   =       0.92553763 Ry
     correction to one-el term =     140.65733275 Ry

     iteration # 20     ecut=    35.00 Ry     beta=0.20
     Davidson diagonalization with overlap
     ethr =  4.42E-11,  avg # of iterations =  1.0

     negative rho (up, down):  1.773E-04 0.000E+00

     add environment contribution to local potential

     total cpu time spent up to now is       62.9 secs

     total energy              =    -734.62322988 Ry
     Harris-Foulkes estimate   =    -876.20559787 Ry
     estimated scf accuracy    <          5.9E-09 Ry
     electrostatic embedding   =       0.92553202 Ry
     correction to one-el term =     140.65683597 Ry

     iteration # 21     ecut=    35.00 Ry     beta=0.20
     Davidson diagonalization with overlap
     ethr =  6.58E-12,  avg # of iterations =  1.0

     negative rho (up, down):  1.774E-04 0.000E+00

     add environment contribution to local potential

     total cpu time spent up to now is       65.7 secs

     total energy              =    -734.62322988 Ry
     Harris-Foulkes estimate   =    -876.20553250 Ry
     estimated scf accuracy    <       0.00000002 Ry
     electrostatic embedding   =       0.92553130 Ry
     correction to one-el term =     140.65677133 Ry

     iteration # 22     ecut=    35.00 Ry     beta=0.20
     Davidson diagonalization with overlap
     ethr =  6.58E-12,  avg # of iterations =  1.0

     negative rho (up, down):  1.782E-04 0.000E+00

     total cpu time spent up to now is       68.3 secs

     End of self-consistent calculation

          k = 0.0000 0.0000 0.0000 ( 14571 PWs)   bands (ev):

   -48.6560 -35.6229 -34.2852 -32.9489 -32.2381 -32.1311 -31.8282 -31.7923
   -31.6435 -31.0059 -30.9966 -30.7661 -30.6842 -30.6712 -30.5618 -30.4418
   -29.7139 -29.6669 -29.6016 -29.4637 -29.4137 -29.3991 -29.3475 -29.3202
   -29.3036 -29.1151 -29.0891 -28.9462 -28.8347 -28.6192 -28.5524 -27.7371
   -27.6481 -27.4174 -27.1608 -27.1116 -27.0502 -26.8921 -26.7217 -26.6252
   -26.4526 -26.4430 -26.2270 -26.2248 -26.1894 -26.0263 -25.8531 -24.6972
   -24.4586 -24.4268 -23.7115 -23.1458 -22.7945 -21.6178 -21.4722 -21.3244
   -20.3031 -19.8681 -18.8444 -18.5325 -18.4098 -17.8307 -17.4235 -17.1559
   -17.1250 -16.3203 -15.4585 -14.7191 -14.6077 -14.4337 -14.1907 -13.9305
   -13.6140 -13.5322 -13.0731 -12.6573 -12.5575 -12.2949 -11.9128 -11.8575

     occupation numbers 
     1.0000   1.0000   1.0000   1.0000   1.0000   1.0000   1.0000   1.0000
     1.0000   1.0000   1.0000   1.0000   1.0000   1.0000   1.0000   1.0000
     1.0000   1.0000   1.0000   1.0000   1.0000   1.0000   1.0000   1.0000
     1.0000   1.0000   1.0000   1.0000   1.0000   1.0000   1.0000   1.0000
     1.0000   1.0004   1.0067   1.0101   1.0164   1.0439   1.0793   1.0808
     0.9891   0.9794   0.6507   0.6467   0.5814   0.3033   0.1118   0.0000
     0.0000   0.0000   0.0000   0.0000   0.0000   0.0000   0.0000   0.0000
     0.0000   0.0000   0.0000   0.0000   0.0000   0.0000   0.0000   0.0000
     0.0000   0.0000   0.0000   0.0000   0.0000   0.0000   0.0000   0.0000
     0.0000   0.0000   0.0000   0.0000   0.0000   0.0000   0.0000   0.0000

     the Fermi energy is   -26.0881 ev

!    total energy              =    -734.62322988 Ry
     Harris-Foulkes estimate   =    -876.20534120 Ry
     estimated scf accuracy    <          1.8E-09 Ry

     The total energy is the sum of the following terms:

     one-electron contribution =   -4076.52350180 Ry
     hartree contribution      =    2005.74750816 Ry
     xc contribution           =    -378.63365165 Ry
     ewald contribution        =    1573.20467954 Ry
     smearing contrib. (-TS)   =      -0.00037544 Ry
     electrostatic embedding   =       0.92552915 Ry
     correction to one-el term =     140.65658217 Ry

     the Fermi energy shift due to the environment is    -0.4600 ev

     convergence has been achieved in  22 iterations

     negative rho (up, down):  1.782E-04 0.000E+00
     The global environment contribution to forces
     atom    1 type  1   force =     0.00000000    0.00000000    0.12401964
     atom    2 type  2   force =     0.00000000    0.00000000    0.26461100
     atom    3 type  3   force =     0.00000000    0.00000000    0.07508571
     atom    4 type  3   force =     0.00000000    0.00000000    0.07508557
     atom    5 type  3   force =     0.00000000    0.00000000    0.07367998
     atom    6 type  3   force =     0.00000000    0.00000000    0.09841163
     atom    7 type  3   force =     0.00000000    0.00000000   -0.18864811
     atom    8 type  3   force =     0.00000000    0.00000000   -0.17969995
     atom    9 type  3   force =     0.00000000    0.00000000   -0.18361174
     atom   10 type  3   force =     0.00000000    0.00000000   -0.18361157
 

     Forces acting on atoms (cartesian axes, Ry/au):

     atom    1 type  1   force =    -0.00000608   -0.00412641    0.12261675
     atom    2 type  2   force =     0.00010010    0.00152800   -0.06330578
     atom    3 type  3   force =    -0.00085265    0.01330402    0.03623721
     atom    4 type  3   force =     0.00190737    0.01359728    0.03691466
     atom    5 type  3   force =    -0.00183920    0.01271947    0.00146808
     atom    6 type  3   force =     0.00075509    0.00796579    0.03101300
     atom    7 type  3   force =    -0.00159194   -0.01416463   -0.04727484
     atom    8 type  3   force =     0.00046261   -0.01790442   -0.02823503
     atom    9 type  3   force =     0.01621454   -0.00664591   -0.04495226
     atom   10 type  3   force =    -0.01514985   -0.00627319   -0.04448179
     The non-local contrib.  to forces
     atom    1 type  1   force =    -0.00007576   -0.00617077    0.51248485
     atom    2 type  2   force =     0.00024251    0.04107719   -3.25335726
     atom    3 type  3   force =    -0.02646459   -0.00137852   -0.10314872
     atom    4 type  3   force =     0.02659245   -0.00121341   -0.10357571
     atom    5 type  3   force =     0.00096712    0.00389898   -0.15509317
     atom    6 type  3   force =    -0.00082170   -0.01655561    0.48095035
     atom    7 type  3   force =     0.00059451    0.02312805    0.07602871
     atom    8 type  3   force =    -0.00091137   -0.01739308    0.10098218
     atom    9 type  3   force =     0.01721822   -0.00295757    0.06288137
     atom   10 type  3   force =    -0.01710907   -0.00262901    0.06173229
     The ionic contribution  to forces
     atom    1 type  1   force =     0.00636806    0.05296760   19.96835427
     atom    2 type  2   force =     0.00226724   -0.13041391   48.33963012
     atom    3 type  3   force =     0.50324609   -0.09020628   30.03736972
     atom    4 type  3   force =    -0.49292694   -0.08303178   30.06216876
     atom    5 type  3   force =    -0.07802400    0.12039865   29.68099553
     atom    6 type  3   force =     0.05586768    0.10046245   29.12582959
     atom    7 type  3   force =    -0.06942211   -0.08855591  -48.10896481
     atom    8 type  3   force =     0.05843526    0.13450123  -45.70999247
     atom    9 type  3   force =     0.08482129   -0.01166389  -46.71013044
     atom   10 type  3   force =    -0.07063256   -0.00445817  -46.68526027
     The local contribution  to forces
     atom    1 type  1   force =    -0.00630448   -0.05090880  -20.48209532
     atom    2 type  2   force =    -0.00241592    0.09088052  -45.41404779
     atom    3 type  3   force =    -0.48024332    0.10833483  -29.96526488
     atom    4 type  3   force =     0.47102893    0.10121552  -29.98910436
     atom    5 type  3   force =     0.07477581   -0.10786014  -29.59492618
     atom    6 type  3   force =    -0.05402718   -0.07211565  -29.74417082
     atom    7 type  3   force =     0.06675375    0.04333837   48.15894882
     atom    8 type  3   force =    -0.05670983   -0.13067351   45.74293155
     atom    9 type  3   force =    -0.09288664    0.00376167   46.76859889
     atom   10 type  3   force =     0.07983835   -0.00343131   46.74521889
     The core correction contribution to forces
     atom    1 type  1   force =     0.00000000    0.00000000    0.00000000
     atom    2 type  2   force =     0.00000000    0.00000000    0.00000000
     atom    3 type  3   force =     0.00260803   -0.00343995   -0.00771696
     atom    4 type  3   force =    -0.00279911   -0.00336669   -0.00757271
     atom    5 type  3   force =     0.00043357   -0.00369745   -0.00309970
     atom    6 type  3   force =    -0.00026848   -0.00381005    0.07006159
     atom    7 type  3   force =     0.00047501    0.00793921    0.01544177
     atom    8 type  3   force =    -0.00035744   -0.00431960    0.01762943
     atom    9 type  3   force =     0.00707017    0.00422763    0.01739666
     atom   10 type  3   force =    -0.00726796    0.00425877    0.01752837
     The Hubbard contrib.    to forces
     atom    1 type  1   force =     0.00000000    0.00000000    0.00000000
     atom    2 type  2   force =     0.00000000    0.00000000    0.00000000
     atom    3 type  3   force =     0.00000000    0.00000000    0.00000000
     atom    4 type  3   force =     0.00000000    0.00000000    0.00000000
     atom    5 type  3   force =     0.00000000    0.00000000    0.00000000
     atom    6 type  3   force =     0.00000000    0.00000000    0.00000000
     atom    7 type  3   force =     0.00000000    0.00000000    0.00000000
     atom    8 type  3   force =     0.00000000    0.00000000    0.00000000
     atom    9 type  3   force =     0.00000000    0.00000000    0.00000000
     atom   10 type  3   force =     0.00000000    0.00000000    0.00000000
     The SCF correction term to forces
     atom    1 type  1   force =    -0.00000033   -0.00000113   -0.00000911
     atom    2 type  2   force =    -0.00000016   -0.00000248   -0.00000428
     atom    3 type  3   force =    -0.00000529    0.00000724    0.00004993
     atom    4 type  3   force =     0.00000560    0.00000696    0.00005068
     atom    5 type  3   force =     0.00000186   -0.00000726    0.00004920
     atom    6 type  3   force =    -0.00000167   -0.00000203    0.00006824
     atom    7 type  3   force =     0.00000047   -0.00000103    0.00005635
     atom    8 type  3   force =    -0.00000044   -0.00000615    0.00005181
     atom    9 type  3   force =    -0.00001494   -0.00000044    0.00005058
     atom   10 type  3   force =     0.00001496   -0.00000016    0.00004808

     Total force =     0.177281     Total SCF correction =     0.000154

     Writing output data file PtCO_helmholtz_vacuum.save
 
     init_run     :      5.28s CPU      5.39s WALL (       1 calls)
     electrons    :     59.11s CPU     62.82s WALL (       1 calls)
     forces       :      3.19s CPU      3.29s WALL (       1 calls)

     Called by init_run:
     wfcinit      :      0.41s CPU      0.43s WALL (       1 calls)
     wfcinit:atom :      0.00s CPU      0.01s WALL (       1 calls)
     wfcinit:wfcr :      0.40s CPU      0.40s WALL (       1 calls)
     potinit      :      1.30s CPU      1.31s WALL (       1 calls)

     Called by electrons:
     c_bands      :     24.01s CPU     24.45s WALL (      22 calls)
     sum_band     :     17.51s CPU     19.04s WALL (      22 calls)
     v_of_rho     :      5.50s CPU      5.66s WALL (      23 calls)
     v_h          :      0.62s CPU      0.64s WALL (      61 calls)
     v_xc         :      5.50s CPU      5.66s WALL (      24 calls)
     newd         :      9.73s CPU     11.36s WALL (      23 calls)
     mix_rho      :      0.81s CPU      0.82s WALL (      22 calls)

     Called by c_bands:
     init_us_2    :      0.33s CPU      0.35s WALL (      45 calls)
     cegterg      :     22.42s CPU     22.85s WALL (      22 calls)

     Called by sum_band:
     sum_band:bec :      0.00s CPU      0.00s WALL (      22 calls)
     addusdens    :     12.89s CPU     14.40s WALL (      22 calls)

     Called by *egterg:
     h_psi        :     15.04s CPU     15.11s WALL (      79 calls)
     s_psi        :      1.38s CPU      1.36s WALL (      79 calls)
     g_psi        :      0.16s CPU      0.18s WALL (      56 calls)
     cdiaghg      :      0.66s CPU      0.66s WALL (      78 calls)
     cegterg:over :      1.88s CPU      1.88s WALL (      56 calls)
     cegterg:upda :      1.52s CPU      1.50s WALL (      56 calls)
     cegterg:last :      0.86s CPU      0.86s WALL (      22 calls)

     Called by h_psi:
     h_psi:pot    :     14.88s CPU     14.92s WALL (      79 calls)
     h_psi:calbec :      1.25s CPU      1.25s WALL (      79 calls)
     vloc_psi     :     12.26s CPU     12.31s WALL (      79 calls)
     add_vuspsi   :      1.37s CPU      1.36s WALL (      79 calls)

     General routines
     calbec       :      1.91s CPU      1.90s WALL (     105 calls)
     fft          :      2.97s CPU      3.16s WALL (     452 calls)
     ffts         :      0.09s CPU      0.09s WALL (      45 calls)
     fftw         :     11.54s CPU     11.86s WALL (    9422 calls)
     interpolate  :      0.48s CPU      0.49s WALL (      45 calls)
     davcio       :      0.00s CPU      0.01s WALL (       1 calls)
 
     Parallel routines
     fft_scatter  :      1.49s CPU      1.80s WALL (    9919 calls)
 
     Environ routines
     calc_eelect  :      0.02s CPU      0.02s WALL (      44 calls)
     calc_velect  :      1.44s CPU      1.44s WALL (      38 calls)
     calc_felect  :      0.09s CPU      0.09s WALL (       1 calls)
 
     PWSCF        :  1m 7.70s CPU     1m11.65s WALL

 
   This run was terminated on:  15:35:56  29Jan2018            

=------------------------------------------------------------------------------=
   JOB DONE.
=------------------------------------------------------------------------------=
