
     Program PWSCF v.5.2.0 (svn rev. 11610M) starts on  8Jul2015 at 17:43:51 

     This program is part of the open-source Quantum ESPRESSO suite
     for quantum simulation of materials; please cite
         "P. Giannozzi et al., J. Phys.:Condens. Matter 21 395502 (2009);
          URL http://www.quantum-espresso.org", 
     in publications or presentations arising from this work. More details at
     http://www.quantum-espresso.org/quote

     Parallel version (MPI), running on     2 processors
     R & G space division:  proc/nbgrp/npool/nimage =       2
     Waiting for input...
     Reading input from standard input
Warning: card  &IONS ignored
Warning: card    ION_DYNAMICS    = 'BFGS' ignored
Warning: card  / ignored

     Current dimensions of program PWSCF are:
     Max number of different atomic species (ntypx) = 10
     Max number of k-points (npk) =  40000
     Max angular momentum in pseudopotentials (lmaxx) =  3
               file C.pbe-rrkjus.UPF: wavefunction(s)  2S 2P renormalized
               file O.pbe-rrkjus.UPF: wavefunction(s)  2S renormalized

     Subspace diagonalization in iterative solution of the eigenvalue problem:
     a serial algorithm will be used

 
     Parallelization info
     --------------------
     sticks:   dense  smooth     PW     G-vecs:    dense   smooth      PW
     Min        1102     549    134               165453    58471    7284
     Max        1103     550    135               165456    58494    7287
     Sum        2205    1099    269               330909   116965   14571
 


     bravais-lattice index     =            8
     lattice parameter (alat)  =      10.6881  a.u.
     unit-cell volume          =    4181.1215 (a.u.)^3
     number of atoms/cell      =           10
     number of atomic types    =            3
     number of electrons       =        89.00
     number of Kohn-Sham states=           80
     kinetic-energy cutoff     =      35.0000  Ry
     charge density cutoff     =     280.0000  Ry
     convergence threshold     =      5.0E-09
     mixing beta               =       0.2000
     number of iterations used =            8  plain     mixing
     Exchange-correlation      =  SLA  PW   PBE  PBE ( 1  4  3  4 0 0)
 

     Environ Module
     ==============

     Please cite
         "O. Andreussi, I. Dabo and N. Marzari, J. Chem. Phys. 136, 064102 (2012);"
     in publications or presentations arising from this work.

     compensation onset threshold      =               0.1000E+01 
     switching function adopted        =                     SCCS 
     density limit for vacuum region   =               0.5000E-02 
     density limit for bulk solvent    =               0.1000E-03 
     correction slab geom. along axis  =                        3 
     number of external charged items  =                        2 
 

     celldm(1)=  10.688100  celldm(2)=   0.866025  celldm(3)=   3.954220
     celldm(4)=   0.000000  celldm(5)=   0.000000  celldm(6)=   0.000000

     crystal axes: (cart. coord. in units of alat)
               a(1) = (   1.000000   0.000000   0.000000 )  
               a(2) = (   0.000000   0.866025   0.000000 )  
               a(3) = (   0.000000   0.000000   3.954220 )  

     reciprocal axes: (cart. coord. in units 2 pi/alat)
               b(1) = (  1.000000  0.000000  0.000000 )  
               b(2) = (  0.000000  1.154701  0.000000 )  
               b(3) = (  0.000000  0.000000  0.252894 )  


     PseudoPot. # 1 for C  read from file:
     /home/andreussi/PWSCF/espresso/pseudo/C.pbe-rrkjus.UPF
     MD5 check sum: 00fb224312de0c5b6853bd333518df6f
     Pseudo is Ultrasoft, Zval =  4.0
     Generated by new atomic code, or converted to UPF format
     Using radial grid of  627 points,  4 beta functions with: 
                l(1) =   0
                l(2) =   0
                l(3) =   1
                l(4) =   1
     Q(r) pseudized with 0 coefficients 


     PseudoPot. # 2 for O  read from file:
     /home/andreussi/PWSCF/espresso/pseudo/O.pbe-rrkjus.UPF
     MD5 check sum: 390ba29e75625707450f3bd3f0eb6be9
     Pseudo is Ultrasoft, Zval =  6.0
     Generated by new atomic code, or converted to UPF format
     Using radial grid of 1269 points,  4 beta functions with: 
                l(1) =   0
                l(2) =   0
                l(3) =   1
                l(4) =   1
     Q(r) pseudized with 0 coefficients 


     PseudoPot. # 3 for Pt read from file:
     /home/andreussi/PWSCF/espresso/pseudo/Pt.pbe-nd-rrkjus.UPF
     MD5 check sum: 1413c21c79e416b56dc03f2d0e22670c
     Pseudo is Ultrasoft + core correction, Zval = 10.0
     Generated by new atomic code, or converted to UPF format
     Using radial grid of 1547 points,  3 beta functions with: 
                l(1) =   1
                l(2) =   2
                l(3) =   2
     Q(r) pseudized with 0 coefficients 


     atomic species   valence    mass     pseudopotential
        C              4.00     1.00000     C ( 1.00)
        O              6.00     1.00000     O ( 1.00)
        Pt            10.00     1.00000     Pt( 1.00)

     No symmetry found


                                    s                        frac. trans.

      isym =  1     identity                                     

 cryst.   s( 1) = (     1          0          0      )
                  (     0          1          0      )
                  (     0          0          1      )

 cart.    s( 1) = (  1.0000000  0.0000000  0.0000000 )
                  (  0.0000000  1.0000000  0.0000000 )
                  (  0.0000000  0.0000000  1.0000000 )


     point group C_1 (1)    
     there are  1 classes
     the character table:

       E    
A      1.00

     the symmetry operations in each class and the name of the first element:

     E        1
          identity                                               

   Cartesian axes

     site n.     atom                  positions (alat units)
         1           C   tau(   1) = (   0.4991611   0.4347567   1.2070461  )
         2           O   tau(   2) = (   0.4991542   0.4322212   1.4109013  )
         3           Pt  tau(   3) = (   0.7542339   0.0091745   0.8413229  )
         4           Pt  tau(   4) = (   0.2441023   0.0091745   0.8413226  )
         5           Pt  tau(   5) = (   0.0000034   0.4416918   0.8391348  )
         6           Pt  tau(   6) = (   0.4991682   0.4417635   0.8776299  )
         7           Pt  tau(   7) = (   0.0000038   0.7300598   0.4308181  )
         8           Pt  tau(   8) = (   0.4991683   0.7202168   0.4447460  )
         9           Pt  tau(   9) = (   0.2524172   0.2949237   0.4386572  )
        10           Pt  tau(  10) = (   0.7459196   0.2949237   0.4386575  )

   Crystallographic axes

     site n.     atom                  positions (cryst. coord.)
         1           C   tau(   1) = (  0.4991611  0.5020141  0.3052552  )
         2           O   tau(   2) = (  0.4991542  0.4990863  0.3568090  )
         3           Pt  tau(   3) = (  0.7542339  0.0105938  0.2127658  )
         4           Pt  tau(   4) = (  0.2441023  0.0105938  0.2127658  )
         5           Pt  tau(   5) = (  0.0000034  0.5100220  0.2122125  )
         6           Pt  tau(   6) = (  0.4991682  0.5101048  0.2219477  )
         7           Pt  tau(   7) = (  0.0000038  0.8430008  0.1089515  )
         8           Pt  tau(   8) = (  0.4991683  0.8316351  0.1124738  )
         9           Pt  tau(   9) = (  0.2524172  0.3405487  0.1109339  )
        10           Pt  tau(  10) = (  0.7459196  0.3405488  0.1109340  )

     number of k points=     1  Marzari-Vanderbilt smearing, width (Ry)=  0.0300
                       cart. coord. in units 2pi/alat
        k(    1) = (   0.0000000   0.0000000   0.0000000), wk =   2.0000000

                       cryst. coord.
        k(    1) = (   0.0000000   0.0000000   0.0000000), wk =   2.0000000

     Dense  grid:   330909 G-vectors     FFT dimensions: (  60,  50, 225)

     Smooth grid:   116965 G-vectors     FFT dimensions: (  45,  36, 160)

     Largest allocated arrays     est. size (Mb)     dimensions
        Kohn-Sham Wavefunctions         8.89 Mb     (    7284,   80)
        NL pseudopotentials            13.34 Mb     (    7284,  120)
        Each V/rho on FFT grid          5.17 Mb     (  339000)
        Each G-vector array             1.26 Mb     (  165456)
        G-vector shells                 0.32 Mb     (   42597)
     Largest temporary arrays     est. size (Mb)     dimensions
        Auxiliary wavefunctions        35.57 Mb     (    7284,  320)
        Each subspace H/S matrix        1.56 Mb     (     320,  320)
        Each <psi_i|beta_j> matrix      0.15 Mb     (     120,   80)
        Arrays for rho mixing          41.38 Mb     (  339000,    8)

     Check: negative/imaginary core charge=   -0.000038    0.000000

     Initial potential from superposition of free atoms

     starting charge   89.99875, renormalised to   89.00000

     negative rho (up, down):  7.106E-05 0.000E+00
     Starting wfc are   56 randomized atomic wfcs +   24 random wfc

     total cpu time spent up to now is       10.1 secs

     per-process dynamical memory:   135.2 Mb

     Self-consistent Calculation

     iteration #  1     ecut=    35.00 Ry     beta=0.20
     Davidson diagonalization with overlap
     ethr =  1.00E-02,  avg # of iterations =  6.0

     negative rho (up, down):  7.712E-05 0.000E+00

     total cpu time spent up to now is       18.7 secs

     total energy              =    -735.20636345 Ry
     Harris-Foulkes estimate   =    -735.95159606 Ry
     estimated scf accuracy    <       2.31944252 Ry
     periodic energy correct.  =       0.00000000 Ry
     external charges energy   =       0.00000000 Ry

     iteration #  2     ecut=    35.00 Ry     beta=0.20
     Davidson diagonalization with overlap
     ethr =  2.61E-03,  avg # of iterations =  4.0

     negative rho (up, down):  1.371E-04 0.000E+00

     total cpu time spent up to now is       24.5 secs

     total energy              =    -734.92186323 Ry
     Harris-Foulkes estimate   =    -736.43423530 Ry
     estimated scf accuracy    <      17.12033846 Ry
     periodic energy correct.  =       0.00000000 Ry
     external charges energy   =       0.00000000 Ry

     iteration #  3     ecut=    35.00 Ry     beta=0.20
     Davidson diagonalization with overlap
     ethr =  2.61E-03,  avg # of iterations =  2.0

     negative rho (up, down):  1.083E-04 0.000E+00

     add environment contribution to local potential

     total cpu time spent up to now is       30.1 secs

     total energy              =    -735.56660161 Ry
     Harris-Foulkes estimate   =    -735.65116654 Ry
     estimated scf accuracy    <       0.52386981 Ry
     periodic energy correct.  =       0.00000000 Ry
     external charges energy   =       0.00000000 Ry

     iteration #  4     ecut=    35.00 Ry     beta=0.20
     Davidson diagonalization with overlap
     ethr =  5.89E-04,  avg # of iterations =  7.0

     negative rho (up, down):  1.405E-04 0.000E+00

     add environment contribution to local potential

     total cpu time spent up to now is       36.4 secs

     total energy              =    -734.67896925 Ry
     Harris-Foulkes estimate   =    -882.75400862 Ry
     estimated scf accuracy    <       0.41941580 Ry
     periodic energy correct.  =       0.00008597 Ry
     external charges energy   =       0.91921230 Ry

     iteration #  5     ecut=    35.00 Ry     beta=0.20
     Davidson diagonalization with overlap
     ethr =  4.71E-04,  avg # of iterations =  1.0

     negative rho (up, down):  1.365E-04 0.000E+00

     add environment contribution to local potential

     total cpu time spent up to now is       41.8 secs

     total energy              =    -734.64847795 Ry
     Harris-Foulkes estimate   =    -881.69437141 Ry
     estimated scf accuracy    <       0.15274643 Ry
     periodic energy correct.  =      -0.00000434 Ry
     external charges energy   =       0.90078476 Ry

     iteration #  6     ecut=    35.00 Ry     beta=0.20
     Davidson diagonalization with overlap
     ethr =  1.72E-04,  avg # of iterations =  3.0

     negative rho (up, down):  1.464E-04 0.000E+00

     add environment contribution to local potential

     total cpu time spent up to now is       47.6 secs

     total energy              =    -734.65781992 Ry
     Harris-Foulkes estimate   =    -880.02851026 Ry
     estimated scf accuracy    <       0.02304218 Ry
     periodic energy correct.  =       0.00000160 Ry
     external charges energy   =       0.89472678 Ry

     iteration #  7     ecut=    35.00 Ry     beta=0.20
     Davidson diagonalization with overlap
     ethr =  2.59E-05,  avg # of iterations =  8.0

     negative rho (up, down):  1.807E-04 0.000E+00

     add environment contribution to local potential

     total cpu time spent up to now is       53.9 secs

     total energy              =    -734.65694278 Ry
     Harris-Foulkes estimate   =    -879.48611288 Ry
     estimated scf accuracy    <       0.02514310 Ry
     periodic energy correct.  =       0.00001309 Ry
     external charges energy   =       0.89060753 Ry

     iteration #  8     ecut=    35.00 Ry     beta=0.20
     Davidson diagonalization with overlap
     ethr =  2.59E-05,  avg # of iterations =  1.0

     negative rho (up, down):  1.777E-04 0.000E+00

     add environment contribution to local potential

     total cpu time spent up to now is       59.3 secs

     total energy              =    -734.65676451 Ry
     Harris-Foulkes estimate   =    -879.11744121 Ry
     estimated scf accuracy    <       0.00671620 Ry
     periodic energy correct.  =       0.00002325 Ry
     external charges energy   =       0.89165709 Ry

     iteration #  9     ecut=    35.00 Ry     beta=0.20
     Davidson diagonalization with overlap
     ethr =  7.55E-06,  avg # of iterations =  5.0

     negative rho (up, down):  1.761E-04 0.000E+00

     add environment contribution to local potential

     total cpu time spent up to now is       65.0 secs

     total energy              =    -734.65685712 Ry
     Harris-Foulkes estimate   =    -879.21000255 Ry
     estimated scf accuracy    <       0.00115105 Ry
     periodic energy correct.  =       0.00001185 Ry
     external charges energy   =       0.89271233 Ry

     iteration # 10     ecut=    35.00 Ry     beta=0.20
     Davidson diagonalization with overlap
     ethr =  1.29E-06,  avg # of iterations =  4.0

     negative rho (up, down):  1.772E-04 0.000E+00

     add environment contribution to local potential

     total cpu time spent up to now is       70.8 secs

     total energy              =    -734.65702874 Ry
     Harris-Foulkes estimate   =    -879.30383768 Ry
     estimated scf accuracy    <       0.00100482 Ry
     periodic energy correct.  =       0.00000776 Ry
     external charges energy   =       0.89230696 Ry

     iteration # 11     ecut=    35.00 Ry     beta=0.20
     Davidson diagonalization with overlap
     ethr =  1.13E-06,  avg # of iterations =  1.0

     negative rho (up, down):  1.757E-04 0.000E+00

     add environment contribution to local potential

     total cpu time spent up to now is       76.3 secs

     total energy              =    -734.65704594 Ry
     Harris-Foulkes estimate   =    -879.26773827 Ry
     estimated scf accuracy    <       0.00134593 Ry
     periodic energy correct.  =       0.00000733 Ry
     external charges energy   =       0.89204719 Ry

     iteration # 12     ecut=    35.00 Ry     beta=0.20
     Davidson diagonalization with overlap
     ethr =  1.13E-06,  avg # of iterations =  1.0

     negative rho (up, down):  1.778E-04 0.000E+00

     add environment contribution to local potential

     total cpu time spent up to now is       81.8 secs

     total energy              =    -734.65702008 Ry
     Harris-Foulkes estimate   =    -879.24456262 Ry
     estimated scf accuracy    <       0.00019471 Ry
     periodic energy correct.  =       0.00000683 Ry
     external charges energy   =       0.89166444 Ry

     iteration # 13     ecut=    35.00 Ry     beta=0.20
     Davidson diagonalization with overlap
     ethr =  2.19E-07,  avg # of iterations =  2.0

     negative rho (up, down):  1.766E-04 0.000E+00

     add environment contribution to local potential

     total cpu time spent up to now is       87.3 secs

     total energy              =    -734.65704008 Ry
     Harris-Foulkes estimate   =    -879.21046953 Ry
     estimated scf accuracy    <       0.00001322 Ry
     periodic energy correct.  =       0.00000676 Ry
     external charges energy   =       0.89169769 Ry

     iteration # 14     ecut=    35.00 Ry     beta=0.20
     Davidson diagonalization with overlap
     ethr =  1.49E-08,  avg # of iterations =  1.0

     negative rho (up, down):  1.769E-04 0.000E+00

     add environment contribution to local potential

     total cpu time spent up to now is       92.8 secs

     total energy              =    -734.65704088 Ry
     Harris-Foulkes estimate   =    -879.21342838 Ry
     estimated scf accuracy    <       0.00002137 Ry
     periodic energy correct.  =       0.00000647 Ry
     external charges energy   =       0.89170059 Ry

     iteration # 15     ecut=    35.00 Ry     beta=0.20
     Davidson diagonalization with overlap
     ethr =  1.49E-08,  avg # of iterations =  1.0

     negative rho (up, down):  1.768E-04 0.000E+00

     add environment contribution to local potential

     total cpu time spent up to now is       98.3 secs

     total energy              =    -734.65704158 Ry
     Harris-Foulkes estimate   =    -879.21368501 Ry
     estimated scf accuracy    <       0.00000137 Ry
     periodic energy correct.  =       0.00000629 Ry
     external charges energy   =       0.89172589 Ry

     iteration # 16     ecut=    35.00 Ry     beta=0.20
     Davidson diagonalization with overlap
     ethr =  1.54E-09,  avg # of iterations =  2.0

     negative rho (up, down):  1.768E-04 0.000E+00

     add environment contribution to local potential

     total cpu time spent up to now is      103.9 secs

     total energy              =    -734.65704175 Ry
     Harris-Foulkes estimate   =    -879.21593628 Ry
     estimated scf accuracy    <       0.00000026 Ry
     periodic energy correct.  =       0.00000624 Ry
     external charges energy   =       0.89172745 Ry

     iteration # 17     ecut=    35.00 Ry     beta=0.20
     Davidson diagonalization with overlap
     ethr =  2.96E-10,  avg # of iterations =  1.0

     negative rho (up, down):  1.768E-04 0.000E+00

     add environment contribution to local potential

     total cpu time spent up to now is      109.3 secs

     total energy              =    -734.65704176 Ry
     Harris-Foulkes estimate   =    -879.21607499 Ry
     estimated scf accuracy    <       0.00000017 Ry
     periodic energy correct.  =       0.00000627 Ry
     external charges energy   =       0.89172582 Ry

     iteration # 18     ecut=    35.00 Ry     beta=0.20
     Davidson diagonalization with overlap
     ethr =  1.90E-10,  avg # of iterations =  1.0

     negative rho (up, down):  1.770E-04 0.000E+00

     add environment contribution to local potential

     total cpu time spent up to now is      114.8 secs

     total energy              =    -734.65704177 Ry
     Harris-Foulkes estimate   =    -879.21592978 Ry
     estimated scf accuracy    <       0.00000009 Ry
     periodic energy correct.  =       0.00000630 Ry
     external charges energy   =       0.89171916 Ry

     iteration # 19     ecut=    35.00 Ry     beta=0.20
     Davidson diagonalization with overlap
     ethr =  1.01E-10,  avg # of iterations =  1.0

     negative rho (up, down):  1.771E-04 0.000E+00

     add environment contribution to local potential

     total cpu time spent up to now is      120.3 secs

     total energy              =    -734.65704177 Ry
     Harris-Foulkes estimate   =    -879.21533683 Ry
     estimated scf accuracy    <       0.00000004 Ry
     periodic energy correct.  =       0.00000633 Ry
     external charges energy   =       0.89171370 Ry

     iteration # 20     ecut=    35.00 Ry     beta=0.20
     Davidson diagonalization with overlap
     ethr =  4.42E-11,  avg # of iterations =  1.0

     negative rho (up, down):  1.773E-04 0.000E+00

     add environment contribution to local potential

     total cpu time spent up to now is      125.8 secs

     total energy              =    -734.65704176 Ry
     Harris-Foulkes estimate   =    -879.21485076 Ry
     estimated scf accuracy    <          5.7E-09 Ry
     periodic energy correct.  =       0.00000635 Ry
     external charges energy   =       0.89171300 Ry

     iteration # 21     ecut=    35.00 Ry     beta=0.20
     Davidson diagonalization with overlap
     ethr =  6.46E-12,  avg # of iterations =  1.0

     negative rho (up, down):  1.774E-04 0.000E+00

     add environment contribution to local potential

     total cpu time spent up to now is      131.2 secs

     total energy              =    -734.65704176 Ry
     Harris-Foulkes estimate   =    -879.21478854 Ry
     estimated scf accuracy    <       0.00000002 Ry
     periodic energy correct.  =       0.00000636 Ry
     external charges energy   =       0.89171088 Ry

     iteration # 22     ecut=    35.00 Ry     beta=0.20
     Davidson diagonalization with overlap
     ethr =  6.46E-12,  avg # of iterations =  1.0

     negative rho (up, down):  1.782E-04 0.000E+00

     total cpu time spent up to now is      136.6 secs

     End of self-consistent calculation

          k = 0.0000 0.0000 0.0000 ( 14571 PWs)   bands (ev):

   -49.1161 -36.0830 -34.7452 -33.4089 -32.6981 -32.5911 -32.2882 -32.2523
   -32.1035 -31.4660 -31.4566 -31.2261 -31.1442 -31.1313 -31.0218 -30.9019
   -30.1740 -30.1270 -30.0617 -29.9237 -29.8737 -29.8592 -29.8075 -29.7803
   -29.7637 -29.5751 -29.5491 -29.4062 -29.2948 -29.0793 -29.0124 -28.1971
   -28.1081 -27.8775 -27.6208 -27.5717 -27.5102 -27.3521 -27.1817 -27.0852
   -26.9126 -26.9030 -26.6870 -26.6848 -26.6494 -26.4863 -26.3131 -25.1572
   -24.9186 -24.8869 -24.1715 -23.6058 -23.2545 -22.0778 -21.9323 -21.7845
   -20.7631 -20.3282 -19.3045 -18.9925 -18.8699 -18.2907 -17.8836 -17.6159
   -17.5850 -16.7803 -15.9185 -15.1791 -15.0677 -14.8937 -14.6507 -14.3906
   -14.0740 -13.9922 -13.5331 -13.1174 -13.0175 -12.7549 -12.3728 -12.3175

     occupation numbers 
     1.0000   1.0000   1.0000   1.0000   1.0000   1.0000   1.0000   1.0000
     1.0000   1.0000   1.0000   1.0000   1.0000   1.0000   1.0000   1.0000
     1.0000   1.0000   1.0000   1.0000   1.0000   1.0000   1.0000   1.0000
     1.0000   1.0000   1.0000   1.0000   1.0000   1.0000   1.0000   1.0000
     1.0000   1.0004   1.0067   1.0101   1.0164   1.0439   1.0793   1.0808
     0.9891   0.9794   0.6507   0.6467   0.5814   0.3033   0.1118   0.0000
     0.0000   0.0000   0.0000   0.0000   0.0000   0.0000   0.0000   0.0000
     0.0000   0.0000   0.0000   0.0000   0.0000   0.0000   0.0000   0.0000
     0.0000   0.0000   0.0000   0.0000   0.0000   0.0000   0.0000   0.0000
     0.0000   0.0000   0.0000   0.0000   0.0000   0.0000   0.0000   0.0000

     the Fermi energy is   -26.5481 ev

!    total energy              =    -734.65704176 Ry
     Harris-Foulkes estimate   =    -879.21459961 Ry
     estimated scf accuracy    <          1.9E-09 Ry

     The total energy is the sum of the following terms:

     one-electron contribution =   -4079.53275281 Ry
     hartree contribution      =    2005.74750003 Ry
     xc contribution           =    -378.63365091 Ry
     ewald contribution        =    1573.20467954 Ry
     smearing contrib. (-TS)   =      -0.00037546 Ry
     periodic energy correct.  =       0.00000636 Ry
     external charges energy   =       0.89171088 Ry

     convergence has been achieved in  22 iterations

     Forces acting on atoms (Ry/au):


     negative rho (up, down):  1.782E-04 0.000E+00
     The external charges contribution to forces
     atom    1 type  1   force =     0.00000000    0.00000000    0.12512579
     atom    2 type  2   force =     0.00000000    0.00000000    0.26627023
     atom    3 type  3   force =     0.00000000    0.00000000    0.07785110
     atom    4 type  3   force =     0.00000000    0.00000000    0.07785096
     atom    5 type  3   force =     0.00000000    0.00000000    0.07644537
     atom    6 type  3   force =     0.00000000    0.00000000    0.10117702
     atom    7 type  3   force =     0.00000000    0.00000000   -0.18588272
     atom    8 type  3   force =     0.00000000    0.00000000   -0.17693456
     atom    9 type  3   force =     0.00000000    0.00000000   -0.18084635
     atom   10 type  3   force =     0.00000000    0.00000000   -0.18084618
     The global environment contribution to forces
     atom    1 type  1   force =     0.00000000    0.00000000    0.12401964
     atom    2 type  2   force =     0.00000000    0.00000000    0.26461100
     atom    3 type  3   force =     0.00000000    0.00000000    0.07508573
     atom    4 type  3   force =     0.00000000    0.00000000    0.07508559
     atom    5 type  3   force =     0.00000000    0.00000000    0.07368000
     atom    6 type  3   force =     0.00000000    0.00000000    0.09841164
     atom    7 type  3   force =     0.00000000    0.00000000   -0.18864809
     atom    8 type  3   force =     0.00000000    0.00000000   -0.17969994
     atom    9 type  3   force =     0.00000000    0.00000000   -0.18361172
     atom   10 type  3   force =     0.00000000    0.00000000   -0.18361155
 
     atom    1 type  1   force =    -0.00000607   -0.00412642    0.12261647
     atom    2 type  2   force =     0.00010011    0.00152801   -0.06330653
     atom    3 type  3   force =    -0.00085262    0.01330408    0.03623740
     atom    4 type  3   force =     0.00190732    0.01359722    0.03691482
     atom    5 type  3   force =    -0.00183920    0.01271946    0.00146826
     atom    6 type  3   force =     0.00075514    0.00796586    0.03101317
     atom    7 type  3   force =    -0.00159195   -0.01416464   -0.04727465
     atom    8 type  3   force =     0.00046256   -0.01790442   -0.02823504
     atom    9 type  3   force =     0.01621449   -0.00664597   -0.04495221
     atom   10 type  3   force =    -0.01514978   -0.00627318   -0.04448168
     The non-local contrib.  to forces
     atom    1 type  1   force =    -0.00007576   -0.00617077    0.51248497
     atom    2 type  2   force =     0.00024254    0.04107718   -3.25335761
     atom    3 type  3   force =    -0.02646450   -0.00137849   -0.10314829
     atom    4 type  3   force =     0.02659237   -0.00121343   -0.10357538
     atom    5 type  3   force =     0.00096713    0.00389898   -0.15509279
     atom    6 type  3   force =    -0.00082166   -0.01655561    0.48095051
     atom    7 type  3   force =     0.00059452    0.02312804    0.07602923
     atom    8 type  3   force =    -0.00091139   -0.01739300    0.10098260
     atom    9 type  3   force =     0.01721824   -0.00295764    0.06288181
     atom   10 type  3   force =    -0.01710905   -0.00262902    0.06173281
     The ionic contribution  to forces
     atom    1 type  1   force =     0.00636806    0.05296760   19.96835427
     atom    2 type  2   force =     0.00226724   -0.13041391   48.33963012
     atom    3 type  3   force =     0.50324609   -0.09020628   30.03736972
     atom    4 type  3   force =    -0.49292694   -0.08303178   30.06216876
     atom    5 type  3   force =    -0.07802400    0.12039865   29.68099553
     atom    6 type  3   force =     0.05586768    0.10046245   29.12582959
     atom    7 type  3   force =    -0.06942211   -0.08855591  -48.10896481
     atom    8 type  3   force =     0.05843526    0.13450123  -45.70999247
     atom    9 type  3   force =     0.08482129   -0.01166389  -46.71013044
     atom   10 type  3   force =    -0.07063256   -0.00445817  -46.68526027
     The local contribution  to forces
     atom    1 type  1   force =    -0.00630446   -0.05090881  -20.48209551
     atom    2 type  2   force =    -0.00241592    0.09088059  -45.41404781
     atom    3 type  3   force =    -0.48024361    0.10833487  -29.96526637
     atom    4 type  3   force =     0.47102922    0.10121557  -29.98910585
     atom    5 type  3   force =     0.07477579   -0.10786013  -29.59492775
     atom    6 type  3   force =    -0.05402714   -0.07211572  -29.74417211
     atom    7 type  3   force =     0.06675372    0.04333836   48.15894709
     atom    8 type  3   force =    -0.05670982   -0.13067365   45.74293011
     atom    9 type  3   force =    -0.09288659    0.00376172   46.76859742
     atom   10 type  3   force =     0.07983830   -0.00343125   46.74521745
     The core correction contribution to forces
     atom    1 type  1   force =     0.00000000    0.00000000    0.00000000
     atom    2 type  2   force =     0.00000000    0.00000000    0.00000000
     atom    3 type  3   force =     0.00260803   -0.00343994   -0.00771699
     atom    4 type  3   force =    -0.00279914   -0.00336669   -0.00757273
     atom    5 type  3   force =     0.00043358   -0.00369744   -0.00309974
     atom    6 type  3   force =    -0.00026848   -0.00381005    0.07006154
     atom    7 type  3   force =     0.00047501    0.00793919    0.01544174
     atom    8 type  3   force =    -0.00035742   -0.00431958    0.01762946
     atom    9 type  3   force =     0.00707018    0.00422762    0.01739665
     atom   10 type  3   force =    -0.00726797    0.00425877    0.01752838
     The Hubbard contrib.    to forces
     atom    1 type  1   force =     0.00000000    0.00000000    0.00000000
     atom    2 type  2   force =     0.00000000    0.00000000    0.00000000
     atom    3 type  3   force =     0.00000000    0.00000000    0.00000000
     atom    4 type  3   force =     0.00000000    0.00000000    0.00000000
     atom    5 type  3   force =     0.00000000    0.00000000    0.00000000
     atom    6 type  3   force =     0.00000000    0.00000000    0.00000000
     atom    7 type  3   force =     0.00000000    0.00000000    0.00000000
     atom    8 type  3   force =     0.00000000    0.00000000    0.00000000
     atom    9 type  3   force =     0.00000000    0.00000000    0.00000000
     atom   10 type  3   force =     0.00000000    0.00000000    0.00000000
     The SCF correction term to forces
     atom    1 type  1   force =    -0.00000034   -0.00000112   -0.00000896
     atom    2 type  2   force =    -0.00000019   -0.00000253   -0.00000428
     atom    3 type  3   force =    -0.00000507    0.00000723    0.00005156
     atom    4 type  3   force =     0.00000536    0.00000689    0.00005238
     atom    5 type  3   force =     0.00000187   -0.00000728    0.00005097
     atom    6 type  3   force =    -0.00000170   -0.00000190    0.00006995
     atom    7 type  3   force =     0.00000047   -0.00000100    0.00005816
     atom    8 type  3   force =    -0.00000051   -0.00000610    0.00005315
     atom    9 type  3   force =    -0.00001507   -0.00000047    0.00005203
     atom   10 type  3   force =     0.00001506   -0.00000020    0.00004947

     Total force =     0.177281     Total SCF correction =     0.000158

     Writing output data file PtCO_helmotz_vacuum.save
 
     init_run     :      9.73s CPU      9.97s WALL (       1 calls)
     electrons    :    119.82s CPU    126.61s WALL (       1 calls)
     forces       :      6.24s CPU      6.47s WALL (       1 calls)

     Called by init_run:
     wfcinit      :      1.10s CPU      1.12s WALL (       1 calls)
     potinit      :      2.57s CPU      2.60s WALL (       1 calls)

     Called by electrons:
     c_bands      :     61.60s CPU     62.43s WALL (      22 calls)
     sum_band     :     31.63s CPU     34.66s WALL (      22 calls)
     v_of_rho     :      8.66s CPU      8.84s WALL (      23 calls)
     v_h          :      0.58s CPU      0.59s WALL (      24 calls)
     v_xc         :      8.46s CPU      8.64s WALL (      24 calls)
     newd         :     15.82s CPU     18.70s WALL (      23 calls)
     mix_rho      :      1.46s CPU      1.48s WALL (      22 calls)

     Called by c_bands:
     init_us_2    :      0.36s CPU      0.39s WALL (      45 calls)
     cegterg      :     59.31s CPU     60.14s WALL (      22 calls)

     Called by sum_band:
     sum_band:bec :      0.00s CPU      0.00s WALL (      22 calls)
     addusdens    :     19.95s CPU     22.92s WALL (      22 calls)

     Called by *egterg:
     h_psi        :     40.23s CPU     40.36s WALL (      78 calls)
     s_psi        :      3.59s CPU      3.60s WALL (      78 calls)
     g_psi        :      0.42s CPU      0.42s WALL (      55 calls)
     cdiaghg      :      1.95s CPU      1.95s WALL (      77 calls)
     cegterg:over :      5.47s CPU      5.47s WALL (      55 calls)
     cegterg:upda :      3.28s CPU      3.29s WALL (      55 calls)
     cegterg:last :      2.36s CPU      2.37s WALL (      22 calls)

     Called by h_psi:
     h_psi:vloc   :     32.80s CPU     32.91s WALL (      78 calls)
     h_psi:vnl    :      7.24s CPU      7.26s WALL (      78 calls)
     add_vuspsi   :      3.60s CPU      3.60s WALL (      78 calls)

     General routines
     calbec       :      5.58s CPU      5.60s WALL (     104 calls)
     fft          :      6.76s CPU      6.86s WALL (     378 calls)
     ffts         :      0.24s CPU      0.24s WALL (      45 calls)
     fftw         :     35.24s CPU     35.36s WALL (    9426 calls)
     interpolate  :      1.16s CPU      1.16s WALL (      45 calls)
     davcio       :      0.00s CPU      0.01s WALL (       1 calls)
 
     Parallel routines
     fft_scatter  :      7.70s CPU      7.78s WALL (    9849 calls)
 
     Environ routines
     calc_epbc    :      0.02s CPU      0.02s WALL (      22 calls)
     calc_vpbc    :      0.64s CPU      0.64s WALL (      19 calls)
     calc_fpbc    :      0.00s CPU      0.00s WALL (       1 calls)
     get_extcharg :    101.80s CPU    107.76s WALL (       2 calls)
 
     PWSCF        :  2m15.93s CPU     2m23.25s WALL

 
   This run was terminated on:  17:46:14   8Jul2015            

=------------------------------------------------------------------------------=
   JOB DONE.
=------------------------------------------------------------------------------=
