
     Program PWSCF v.6.1 (svn rev. 13369) starts on 29Jan2018 at 15:35:56 

     This program is part of the open-source Quantum ESPRESSO suite
     for quantum simulation of materials; please cite
         "P. Giannozzi et al., J. Phys.:Condens. Matter 21 395502 (2009);
          URL http://www.quantum-espresso.org", 
     in publications or presentations arising from this work. More details at
     http://www.quantum-espresso.org/quote

     Parallel version (MPI), running on     1 processors
     Waiting for input...
     Reading input from standard input

     Current dimensions of program PWSCF are:
     Max number of different atomic species (ntypx) = 10
     Max number of k-points (npk) =  40000
     Max angular momentum in pseudopotentials (lmaxx) =  3
               file C.pbe-rrkjus.UPF: wavefunction(s)  2S 2P renormalized
               file O.pbe-rrkjus.UPF: wavefunction(s)  2S renormalized

     Subspace diagonalization in iterative solution of the eigenvalue problem:
     a serial algorithm will be used

 
     G-vector sticks info
     --------------------
     sticks:   dense  smooth     PW     G-vecs:    dense   smooth      PW
     Sum        2205    1099    269               330909   116965   14571
 


     bravais-lattice index     =            8
     lattice parameter (alat)  =      10.6881  a.u.
     unit-cell volume          =    4181.1215 (a.u.)^3
     number of atoms/cell      =           10
     number of atomic types    =            3
     number of electrons       =        89.00
     number of Kohn-Sham states=           80
     kinetic-energy cutoff     =      35.0000  Ry
     charge density cutoff     =     280.0000  Ry
     convergence threshold     =      5.0E-09
     mixing beta               =       0.2000
     number of iterations used =            8  plain     mixing
     Exchange-correlation      =  SLA  PW   PBE  PBE ( 1  4  3  4 0 0)
 

     Environ Module
     ==============

     Plese cite
         O. Andreussi, I. Dabo and N. Marzari, J. Chem. Phys. 136, 064102 (2012)         
     in publications or presentations arising from this work.

     compensation onset threshold      =               0.1000E+01 
     static permittivity               =                    80.00 
     epsilon calculation mode          =                     full 

     Electrostatic Setup
     -------------------
     electrostatic problem to solve    = generalized              
     numerical solver adopted          = cg                       
     type of auxiliary density adopted = none                     
     type of core tool for poisson     = fft                      
     type of core tool for s(r) deriv  = analytic                 



     celldm(1)=  10.688100  celldm(2)=   0.866025  celldm(3)=   3.954220
     celldm(4)=   0.000000  celldm(5)=   0.000000  celldm(6)=   0.000000

     crystal axes: (cart. coord. in units of alat)
               a(1) = (   1.000000   0.000000   0.000000 )  
               a(2) = (   0.000000   0.866025   0.000000 )  
               a(3) = (   0.000000   0.000000   3.954220 )  

     reciprocal axes: (cart. coord. in units 2 pi/alat)
               b(1) = (  1.000000  0.000000  0.000000 )  
               b(2) = (  0.000000  1.154701  0.000000 )  
               b(3) = (  0.000000  0.000000  0.252894 )  


     PseudoPot. # 1 for C  read from file:
     /home/fnattino/Programs/qe-6.1/pseudo/C.pbe-rrkjus.UPF
     MD5 check sum: 00fb224312de0c5b6853bd333518df6f
     Pseudo is Ultrasoft, Zval =  4.0
     Generated by new atomic code, or converted to UPF format
     Using radial grid of  627 points,  4 beta functions with: 
                l(1) =   0
                l(2) =   0
                l(3) =   1
                l(4) =   1
     Q(r) pseudized with 0 coefficients 


     PseudoPot. # 2 for O  read from file:
     /home/fnattino/Programs/qe-6.1/pseudo/O.pbe-rrkjus.UPF
     MD5 check sum: 390ba29e75625707450f3bd3f0eb6be9
     Pseudo is Ultrasoft, Zval =  6.0
     Generated by new atomic code, or converted to UPF format
     Using radial grid of 1269 points,  4 beta functions with: 
                l(1) =   0
                l(2) =   0
                l(3) =   1
                l(4) =   1
     Q(r) pseudized with 0 coefficients 


     PseudoPot. # 3 for Pt read from file:
     /home/fnattino/Programs/qe-6.1/pseudo/Pt.pbe-nd-rrkjus.UPF
     MD5 check sum: 1413c21c79e416b56dc03f2d0e22670c
     Pseudo is Ultrasoft + core correction, Zval = 10.0
     Generated by new atomic code, or converted to UPF format
     Using radial grid of 1547 points,  3 beta functions with: 
                l(1) =   1
                l(2) =   2
                l(3) =   2
     Q(r) pseudized with 0 coefficients 


     atomic species   valence    mass     pseudopotential
        C              4.00     1.00000     C ( 1.00)
        O              6.00     1.00000     O ( 1.00)
        Pt            10.00     1.00000     Pt( 1.00)

     No symmetry found


                                    s                        frac. trans.

      isym =  1     identity                                     

 cryst.   s( 1) = (     1          0          0      )
                  (     0          1          0      )
                  (     0          0          1      )

 cart.    s( 1) = (  1.0000000  0.0000000  0.0000000 )
                  (  0.0000000  1.0000000  0.0000000 )
                  (  0.0000000  0.0000000  1.0000000 )


     point group C_1 (1)    
     there are  1 classes
     the character table:

       E    
A      1.00

     the symmetry operations in each class and the name of the first element:

     E        1
          identity                                               

   Cartesian axes

     site n.     atom                  positions (alat units)
         1           C   tau(   1) = (   0.4991611   0.4347567   1.2070461  )
         2           O   tau(   2) = (   0.4991542   0.4322212   1.4109013  )
         3           Pt  tau(   3) = (   0.7542339   0.0091745   0.8413229  )
         4           Pt  tau(   4) = (   0.2441023   0.0091745   0.8413226  )
         5           Pt  tau(   5) = (   0.0000034   0.4416918   0.8391348  )
         6           Pt  tau(   6) = (   0.4991682   0.4417635   0.8776299  )
         7           Pt  tau(   7) = (   0.0000038   0.7300598   0.4308181  )
         8           Pt  tau(   8) = (   0.4991683   0.7202168   0.4447460  )
         9           Pt  tau(   9) = (   0.2524172   0.2949237   0.4386572  )
        10           Pt  tau(  10) = (   0.7459196   0.2949237   0.4386575  )

   Crystallographic axes

     site n.     atom                  positions (cryst. coord.)
         1           C   tau(   1) = (  0.4991611  0.5020141  0.3052552  )
         2           O   tau(   2) = (  0.4991542  0.4990863  0.3568090  )
         3           Pt  tau(   3) = (  0.7542339  0.0105938  0.2127658  )
         4           Pt  tau(   4) = (  0.2441023  0.0105938  0.2127658  )
         5           Pt  tau(   5) = (  0.0000034  0.5100220  0.2122125  )
         6           Pt  tau(   6) = (  0.4991682  0.5101048  0.2219477  )
         7           Pt  tau(   7) = (  0.0000038  0.8430008  0.1089515  )
         8           Pt  tau(   8) = (  0.4991683  0.8316351  0.1124738  )
         9           Pt  tau(   9) = (  0.2524172  0.3405487  0.1109339  )
        10           Pt  tau(  10) = (  0.7459196  0.3405488  0.1109340  )

     number of k points=     1  Marzari-Vanderbilt smearing, width (Ry)=  0.0300
                       cart. coord. in units 2pi/alat
        k(    1) = (   0.0000000   0.0000000   0.0000000), wk =   2.0000000

                       cryst. coord.
        k(    1) = (   0.0000000   0.0000000   0.0000000), wk =   2.0000000

     Dense  grid:   330909 G-vectors     FFT dimensions: (  60,  50, 225)

     Smooth grid:   116965 G-vectors     FFT dimensions: (  45,  36, 160)

     Estimated max dynamical RAM per process >     378.02MB

     Check: negative/imaginary core charge=   -0.000038    0.000000

     Initial potential from superposition of free atoms

     starting charge   89.99875, renormalised to   89.00000

     negative rho (up, down):  7.106E-05 0.000E+00
     Starting wfc are   56 randomized atomic wfcs +   24 random wfc

     total cpu time spent up to now is        5.9 secs

     per-process dynamical memory:   338.2 Mb

     Self-consistent Calculation

     iteration #  1     ecut=    35.00 Ry     beta=0.20
     Davidson diagonalization with overlap
     ethr =  1.00E-02,  avg # of iterations =  7.0

     negative rho (up, down):  7.727E-05 0.000E+00

     total cpu time spent up to now is       10.0 secs

     total energy              =    -735.17261808 Ry
     Harris-Foulkes estimate   =    -735.95156912 Ry
     estimated scf accuracy    <       2.31915284 Ry
     electrostatic embedding   =       0.03381190 Ry
     correction to one-el term =       0.00000000 Ry

     iteration #  2     ecut=    35.00 Ry     beta=0.20
     Davidson diagonalization with overlap
     ethr =  2.61E-03,  avg # of iterations =  4.0

     negative rho (up, down):  1.372E-04 0.000E+00

     total cpu time spent up to now is       13.0 secs

     total energy              =    -734.88816035 Ry
     Harris-Foulkes estimate   =    -736.43440607 Ry
     estimated scf accuracy    <      17.12182875 Ry
     electrostatic embedding   =       0.03381190 Ry
     correction to one-el term =       0.00000000 Ry

     iteration #  3     ecut=    35.00 Ry     beta=0.20
     Davidson diagonalization with overlap
     ethr =  2.61E-03,  avg # of iterations =  2.0

     negative rho (up, down):  1.084E-04 0.000E+00

     add environment contribution to local potential

     total cpu time spent up to now is       18.7 secs

     total energy              =    -735.53279167 Ry
     Harris-Foulkes estimate   =    -735.65117395 Ry
     estimated scf accuracy    <       0.52332249 Ry
     electrostatic embedding   =       0.03381190 Ry
     correction to one-el term =       0.00000000 Ry

     iteration #  4     ecut=    35.00 Ry     beta=0.20
     Davidson diagonalization with overlap
     ethr =  5.88E-04,  avg # of iterations =  8.0

     negative rho (up, down):  1.082E-04 0.000E+00

     add environment contribution to local potential

     total cpu time spent up to now is       25.4 secs

     total energy              =    -735.32333665 Ry
     Harris-Foulkes estimate   =    -750.85698438 Ry
     estimated scf accuracy    <       0.24094078 Ry
     electrostatic embedding   =       0.26016845 Ry
     correction to one-el term =      15.21809515 Ry

     iteration #  5     ecut=    35.00 Ry     beta=0.20
     Davidson diagonalization with overlap
     ethr =  2.71E-04,  avg # of iterations =  5.0

     negative rho (up, down):  1.312E-04 0.000E+00

     add environment contribution to local potential

     total cpu time spent up to now is       31.4 secs

     total energy              =    -735.32323061 Ry
     Harris-Foulkes estimate   =    -749.11478598 Ry
     estimated scf accuracy    <       0.07841034 Ry
     electrostatic embedding   =       0.24468854 Ry
     correction to one-el term =      13.52943695 Ry

     iteration #  6     ecut=    35.00 Ry     beta=0.20
     Davidson diagonalization with overlap
     ethr =  8.81E-05,  avg # of iterations =  6.0

     negative rho (up, down):  1.459E-04 0.000E+00

     add environment contribution to local potential

     total cpu time spent up to now is       37.6 secs

     total energy              =    -735.32652175 Ry
     Harris-Foulkes estimate   =    -747.55193262 Ry
     estimated scf accuracy    <       0.05224216 Ry
     electrostatic embedding   =       0.23144902 Ry
     correction to one-el term =      11.98838111 Ry

     iteration #  7     ecut=    35.00 Ry     beta=0.20
     Davidson diagonalization with overlap
     ethr =  5.87E-05,  avg # of iterations = 16.0

     negative rho (up, down):  1.469E-04 0.000E+00

     add environment contribution to local potential

     total cpu time spent up to now is       44.4 secs

     total energy              =    -735.31609040 Ry
     Harris-Foulkes estimate   =    -746.67495430 Ry
     estimated scf accuracy    <       0.37056761 Ry
     electrostatic embedding   =       0.22594875 Ry
     correction to one-el term =      11.11092167 Ry

     iteration #  8     ecut=    35.00 Ry     beta=0.20
     Davidson diagonalization with overlap
     ethr =  5.87E-05,  avg # of iterations =  7.0

     negative rho (up, down):  1.465E-04 0.000E+00

     add environment contribution to local potential

     total cpu time spent up to now is       51.0 secs

     total energy              =    -735.32070888 Ry
     Harris-Foulkes estimate   =    -746.51005273 Ry
     estimated scf accuracy    <       0.23769994 Ry
     electrostatic embedding   =       0.22377252 Ry
     correction to one-el term =      10.95260440 Ry

     iteration #  9     ecut=    35.00 Ry     beta=0.20
     Davidson diagonalization with overlap
     ethr =  5.87E-05,  avg # of iterations =  1.0

     negative rho (up, down):  1.479E-04 0.000E+00

     add environment contribution to local potential

     total cpu time spent up to now is       57.2 secs

     total energy              =    -735.32644798 Ry
     Harris-Foulkes estimate   =    -746.26335253 Ry
     estimated scf accuracy    <       0.00564021 Ry
     electrostatic embedding   =       0.22172706 Ry
     correction to one-el term =      10.71419539 Ry

     iteration # 10     ecut=    35.00 Ry     beta=0.20
     Davidson diagonalization with overlap
     ethr =  6.34E-06,  avg # of iterations =  6.0

     negative rho (up, down):  1.455E-04 0.000E+00

     add environment contribution to local potential

     total cpu time spent up to now is       63.3 secs

     total energy              =    -735.32692057 Ry
     Harris-Foulkes estimate   =    -745.99425673 Ry
     estimated scf accuracy    <       0.00235792 Ry
     electrostatic embedding   =       0.21951826 Ry
     correction to one-el term =      10.44757628 Ry

     iteration # 11     ecut=    35.00 Ry     beta=0.20
     Davidson diagonalization with overlap
     ethr =  2.65E-06,  avg # of iterations =  8.0

     negative rho (up, down):  1.449E-04 0.000E+00

     add environment contribution to local potential

     total cpu time spent up to now is       69.7 secs

     total energy              =    -735.32693840 Ry
     Harris-Foulkes estimate   =    -745.90153707 Ry
     estimated scf accuracy    <       0.00106461 Ry
     electrostatic embedding   =       0.21872870 Ry
     correction to one-el term =      10.35571084 Ry

     iteration # 12     ecut=    35.00 Ry     beta=0.20
     Davidson diagonalization with overlap
     ethr =  1.20E-06,  avg # of iterations =  1.0

     negative rho (up, down):  1.450E-04 0.000E+00

     add environment contribution to local potential

     total cpu time spent up to now is       75.6 secs

     total energy              =    -735.32703906 Ry
     Harris-Foulkes estimate   =    -745.75215137 Ry
     estimated scf accuracy    <       0.00042482 Ry
     electrostatic embedding   =       0.21734892 Ry
     correction to one-el term =      10.20770634 Ry

     iteration # 13     ecut=    35.00 Ry     beta=0.20
     Davidson diagonalization with overlap
     ethr =  4.77E-07,  avg # of iterations = 18.0

     negative rho (up, down):  1.443E-04 0.000E+00

     add environment contribution to local potential

     total cpu time spent up to now is       82.2 secs

     total energy              =    -735.32706869 Ry
     Harris-Foulkes estimate   =    -745.61961883 Ry
     estimated scf accuracy    <       0.00091030 Ry
     electrostatic embedding   =       0.21605813 Ry
     correction to one-el term =      10.07644661 Ry

     iteration # 14     ecut=    35.00 Ry     beta=0.20
     Davidson diagonalization with overlap
     ethr =  4.77E-07,  avg # of iterations =  1.0

     negative rho (up, down):  1.437E-04 0.000E+00

     add environment contribution to local potential

     total cpu time spent up to now is       88.2 secs

     total energy              =    -735.32709354 Ry
     Harris-Foulkes estimate   =    -745.55931474 Ry
     estimated scf accuracy    <       0.00020615 Ry
     electrostatic embedding   =       0.21540567 Ry
     correction to one-el term =      10.01680300 Ry

     iteration # 15     ecut=    35.00 Ry     beta=0.20
     Davidson diagonalization with overlap
     ethr =  2.32E-07,  avg # of iterations =  1.0

     negative rho (up, down):  1.430E-04 0.000E+00

     add environment contribution to local potential

     total cpu time spent up to now is       94.2 secs

     total energy              =    -735.32710706 Ry
     Harris-Foulkes estimate   =    -745.52580223 Ry
     estimated scf accuracy    <       0.00000612 Ry
     electrostatic embedding   =       0.21502941 Ry
     correction to one-el term =       9.98366416 Ry

     iteration # 16     ecut=    35.00 Ry     beta=0.20
     Davidson diagonalization with overlap
     ethr =  6.87E-09,  avg # of iterations =  2.0

     negative rho (up, down):  1.430E-04 0.000E+00

     add environment contribution to local potential

     total cpu time spent up to now is      100.3 secs

     total energy              =    -735.32711303 Ry
     Harris-Foulkes estimate   =    -745.51922014 Ry
     estimated scf accuracy    <       0.00007751 Ry
     electrostatic embedding   =       0.21489775 Ry
     correction to one-el term =       9.97720630 Ry

     iteration # 17     ecut=    35.00 Ry     beta=0.20
     Davidson diagonalization with overlap
     ethr =  6.87E-09,  avg # of iterations =  1.0

     negative rho (up, down):  1.428E-04 0.000E+00

     add environment contribution to local potential

     total cpu time spent up to now is      106.3 secs

     total energy              =    -735.32711290 Ry
     Harris-Foulkes estimate   =    -745.51292687 Ry
     estimated scf accuracy    <       0.00000222 Ry
     electrostatic embedding   =       0.21485179 Ry
     correction to one-el term =       9.97096169 Ry

     iteration # 18     ecut=    35.00 Ry     beta=0.20
     Davidson diagonalization with overlap
     ethr =  2.49E-09,  avg # of iterations =  3.0

     negative rho (up, down):  1.428E-04 0.000E+00

     add environment contribution to local potential

     total cpu time spent up to now is      112.5 secs

     total energy              =    -735.32712084 Ry
     Harris-Foulkes estimate   =    -745.49103426 Ry
     estimated scf accuracy    <       0.00001130 Ry
     electrostatic embedding   =       0.21456099 Ry
     correction to one-el term =       9.94935175 Ry

     iteration # 19     ecut=    35.00 Ry     beta=0.20
     Davidson diagonalization with overlap
     ethr =  2.49E-09,  avg # of iterations =  2.0

     negative rho (up, down):  1.429E-04 0.000E+00

     add environment contribution to local potential

     total cpu time spent up to now is      118.6 secs

     total energy              =    -735.32712255 Ry
     Harris-Foulkes estimate   =    -745.48252539 Ry
     estimated scf accuracy    <       0.00000027 Ry
     electrostatic embedding   =       0.21446239 Ry
     correction to one-el term =       9.94094039 Ry

     iteration # 20     ecut=    35.00 Ry     beta=0.20
     Davidson diagonalization with overlap
     ethr =  3.08E-10,  avg # of iterations =  2.0

     negative rho (up, down):  1.430E-04 0.000E+00

     add environment contribution to local potential

     total cpu time spent up to now is      124.7 secs

     total energy              =    -735.32712297 Ry
     Harris-Foulkes estimate   =    -745.47734374 Ry
     estimated scf accuracy    <       0.00000014 Ry
     electrostatic embedding   =       0.21440358 Ry
     correction to one-el term =       9.93581716 Ry

     iteration # 21     ecut=    35.00 Ry     beta=0.20
     Davidson diagonalization with overlap
     ethr =  1.52E-10,  avg # of iterations =  3.0

     negative rho (up, down):  1.431E-04 0.000E+00

     add environment contribution to local potential

     total cpu time spent up to now is      130.9 secs

     total energy              =    -735.32712305 Ry
     Harris-Foulkes estimate   =    -745.47360167 Ry
     estimated scf accuracy    <       0.00000124 Ry
     electrostatic embedding   =       0.21436079 Ry
     correction to one-el term =       9.93211781 Ry

     iteration # 22     ecut=    35.00 Ry     beta=0.20
     Davidson diagonalization with overlap
     ethr =  1.52E-10,  avg # of iterations =  2.0

     negative rho (up, down):  1.432E-04 0.000E+00

     add environment contribution to local potential

     total cpu time spent up to now is      137.0 secs

     total energy              =    -735.32712308 Ry
     Harris-Foulkes estimate   =    -745.47423483 Ry
     estimated scf accuracy    <       0.00000051 Ry
     electrostatic embedding   =       0.21436285 Ry
     correction to one-el term =       9.93274887 Ry

     iteration # 23     ecut=    35.00 Ry     beta=0.20
     Davidson diagonalization with overlap
     ethr =  1.52E-10,  avg # of iterations =  2.0

     negative rho (up, down):  1.433E-04 0.000E+00

     add environment contribution to local potential

     total cpu time spent up to now is      143.0 secs

     total energy              =    -735.32712311 Ry
     Harris-Foulkes estimate   =    -745.47383981 Ry
     estimated scf accuracy    <       0.00000007 Ry
     electrostatic embedding   =       0.21435571 Ry
     correction to one-el term =       9.93236099 Ry

     iteration # 24     ecut=    35.00 Ry     beta=0.20
     Davidson diagonalization with overlap
     ethr =  7.38E-11,  avg # of iterations =  2.0

     negative rho (up, down):  1.438E-04 0.000E+00

     total cpu time spent up to now is      145.8 secs

     End of self-consistent calculation

          k = 0.0000 0.0000 0.0000 ( 14571 PWs)   bands (ev):

   -29.7557 -16.2947 -14.7098 -13.4332 -13.2533 -12.6420 -12.6173 -12.5481
   -12.3672 -11.5041 -11.3831 -11.2570 -11.0422 -11.0179 -10.9400 -10.8058
   -10.1038 -10.0779 -10.0174  -9.8256  -9.8049  -9.7544  -9.7176  -9.6705
    -9.6522  -9.4688  -9.4401  -9.3124  -9.2240  -8.9897  -8.8987  -8.1219
    -8.0179  -7.7315  -7.5123  -7.4506  -7.3815  -7.2369  -7.0506  -6.9652
    -6.7968  -6.7827  -6.5702  -6.5697  -6.5325  -6.3726  -6.2103  -5.0551
    -4.8369  -4.7568  -4.0768  -3.4387  -3.2780  -2.2522  -1.9774  -1.9408
    -1.2718  -0.9453  -0.6400  -0.2577  -0.1558   0.4345   0.8653   1.1105
     1.6459   1.9270   2.1346   2.3479   2.4468   2.7013   3.3081   3.4419
     3.5951   3.6785   4.1039   4.3570   4.4200   4.4601   4.7449   4.8235

     occupation numbers 
     1.0000   1.0000   1.0000   1.0000   1.0000   1.0000   1.0000   1.0000
     1.0000   1.0000   1.0000   1.0000   1.0000   1.0000   1.0000   1.0000
     1.0000   1.0000   1.0000   1.0000   1.0000   1.0000   1.0000   1.0000
     1.0000   1.0000   1.0000   1.0000   1.0000   1.0000   1.0000   1.0000
     1.0000   1.0006   1.0063   1.0107   1.0181   1.0440   1.0812   1.0800
     0.9882   0.9737   0.6471   0.6463   0.5776   0.3050   0.1211   0.0000
     0.0000   0.0000   0.0000   0.0000   0.0000   0.0000   0.0000   0.0000
     0.0000   0.0000   0.0000   0.0000   0.0000   0.0000   0.0000   0.0000
     0.0000   0.0000   0.0000   0.0000   0.0000   0.0000   0.0000   0.0000
     0.0000   0.0000   0.0000   0.0000   0.0000   0.0000   0.0000   0.0000

     the Fermi energy is    -6.4332 ev

!    total energy              =    -735.32712309 Ry
     Harris-Foulkes estimate   =    -745.47371607 Ry
     estimated scf accuracy    <          2.7E-09 Ry

     The total energy is the sum of the following terms:

     one-electron contribution =   -3942.97047688 Ry
     hartree contribution      =    2002.99508946 Ry
     xc contribution           =    -378.70225260 Ry
     ewald contribution        =    1573.20467954 Ry
     smearing contrib. (-TS)   =      -0.00075559 Ry
     electrostatic embedding   =       0.21435413 Ry
     correction to one-el term =       9.93223885 Ry

     the Fermi energy shift due to the environment is    -0.4600 ev

     convergence has been achieved in  24 iterations

     negative rho (up, down):  1.438E-04 0.000E+00
     The global environment contribution to forces
     atom    1 type  1   force =     0.00006324    0.00582102   -0.05769036
     atom    2 type  2   force =     0.00001573    0.00423645   -0.32527196
     atom    3 type  3   force =    -0.00080883   -0.00378539    0.13073518
     atom    4 type  3   force =     0.00082299   -0.00379975    0.13081195
     atom    5 type  3   force =    -0.00015380    0.00210570    0.10712250
     atom    6 type  3   force =     0.00008059    0.00503020    0.08947906
     atom    7 type  3   force =    -0.00047737    0.00752777   -0.14151709
     atom    8 type  3   force =     0.00039673    0.00885202   -0.13084321
     atom    9 type  3   force =    -0.00903990   -0.00720986   -0.15227741
     atom   10 type  3   force =     0.00907223   -0.00725244   -0.15289913
 

     Forces acting on atoms (cartesian axes, Ry/au):

     atom    1 type  1   force =    -0.00005301   -0.00446517    0.08375782
     atom    2 type  2   force =     0.00000360    0.00142378   -0.06012657
     atom    3 type  3   force =     0.00039438    0.01401665    0.03296751
     atom    4 type  3   force =     0.00065819    0.01430718    0.03369160
     atom    5 type  3   force =    -0.00179910    0.01276951   -0.00364045
     atom    6 type  3   force =     0.00079931    0.00782533    0.04246295
     atom    7 type  3   force =    -0.00152197   -0.01436738   -0.03740315
     atom    8 type  3   force =     0.00046181   -0.02024325   -0.02044889
     atom    9 type  3   force =     0.01746061   -0.00581248   -0.03586233
     atom   10 type  3   force =    -0.01640381   -0.00545417   -0.03539849
     The non-local contrib.  to forces
     atom    1 type  1   force =    -0.00008189   -0.00750508    0.58226075
     atom    2 type  2   force =     0.00018482    0.03855256   -2.92669220
     atom    3 type  3   force =    -0.02653616   -0.00122482   -0.10394600
     atom    4 type  3   force =     0.02663995   -0.00105727   -0.10440245
     atom    5 type  3   force =     0.00099679    0.00437271   -0.15556643
     atom    6 type  3   force =    -0.00080832   -0.01670112    0.50042334
     atom    7 type  3   force =     0.00061085    0.02490992    0.06494837
     atom    8 type  3   force =    -0.00091276   -0.01815120    0.09231595
     atom    9 type  3   force =     0.01903926   -0.00383446    0.05462951
     atom   10 type  3   force =    -0.01894498   -0.00350889    0.05342720
     The ionic contribution  to forces
     atom    1 type  1   force =     0.00636806    0.05296760   19.96835427
     atom    2 type  2   force =     0.00226724   -0.13041391   48.33963012
     atom    3 type  3   force =     0.50324609   -0.09020628   30.03736972
     atom    4 type  3   force =    -0.49292694   -0.08303178   30.06216876
     atom    5 type  3   force =    -0.07802400    0.12039865   29.68099553
     atom    6 type  3   force =     0.05586768    0.10046245   29.12582959
     atom    7 type  3   force =    -0.06942211   -0.08855591  -48.10896481
     atom    8 type  3   force =     0.05843526    0.13450123  -45.70999247
     atom    9 type  3   force =     0.08482129   -0.01166389  -46.71013044
     atom   10 type  3   force =    -0.07063256   -0.00445817  -46.68526027
     The local contribution  to forces
     atom    1 type  1   force =    -0.00642233   -0.05574231  -20.40877314
     atom    2 type  2   force =    -0.00248318    0.08905294  -45.14742327
     atom    3 type  3   force =    -0.47820833    0.11277459  -30.02033007
     atom    4 type  3   force =     0.46896488    0.10564948  -30.04421070
     atom    5 type  3   force =     0.07493560   -0.11039577  -29.63164704
     atom    6 type  3   force =    -0.05411423   -0.07725468  -29.74165500
     atom    7 type  3   force =     0.06726863    0.03419351   48.13487947
     atom    8 type  3   force =    -0.05713008   -0.14106779   45.71222047
     atom    9 type  3   force =    -0.08470360    0.01265726   46.75531628
     atom   10 type  3   force =     0.07160291    0.00550135   46.73256056
     The core correction contribution to forces
     atom    1 type  1   force =     0.00000000    0.00000000    0.00000000
     atom    2 type  2   force =     0.00000000    0.00000000    0.00000000
     atom    3 type  3   force =     0.00270372   -0.00353993   -0.01048246
     atom    4 type  3   force =    -0.00287885   -0.00345010   -0.01030360
     atom    5 type  3   force =     0.00044384   -0.00370471   -0.00414823
     atom    6 type  3   force =    -0.00025921   -0.00370178    0.06877449
     atom    7 type  3   force =     0.00049690    0.00755164    0.01364358
     atom    8 type  3   force =    -0.00036236   -0.00437477    0.01619567
     atom    9 type  3   force =     0.00734610    0.00425185    0.01700158
     atom   10 type  3   force =    -0.00754090    0.00427978    0.01717644
     The Hubbard contrib.    to forces
     atom    1 type  1   force =     0.00000000    0.00000000    0.00000000
     atom    2 type  2   force =     0.00000000    0.00000000    0.00000000
     atom    3 type  3   force =     0.00000000    0.00000000    0.00000000
     atom    4 type  3   force =     0.00000000    0.00000000    0.00000000
     atom    5 type  3   force =     0.00000000    0.00000000    0.00000000
     atom    6 type  3   force =     0.00000000    0.00000000    0.00000000
     atom    7 type  3   force =     0.00000000    0.00000000    0.00000000
     atom    8 type  3   force =     0.00000000    0.00000000    0.00000000
     atom    9 type  3   force =     0.00000000    0.00000000    0.00000000
     atom   10 type  3   force =     0.00000000    0.00000000    0.00000000
     The SCF correction term to forces
     atom    1 type  1   force =     0.00000195   -0.00000093   -0.00000250
     atom    2 type  2   force =     0.00000103    0.00000121    0.00002193
     atom    3 type  3   force =    -0.00002008    0.00000395    0.00001233
     atom    4 type  3   force =     0.00001818    0.00000207    0.00001883
     atom    5 type  3   force =    -0.00001550   -0.00000161   -0.00000558
     atom    6 type  3   force =     0.00001484   -0.00000428    0.00000267
     atom    7 type  3   force =    -0.00001684    0.00001116   -0.00000147
     atom    8 type  3   force =     0.00001705    0.00000274    0.00004591
     atom    9 type  3   force =    -0.00002051   -0.00000791   -0.00001065
     atom   10 type  3   force =     0.00002153   -0.00001032   -0.00001209

     Total force =     0.144684     Total SCF correction =     0.000080

     Writing output data file PtCO_helmholtz_water.save
 
     init_run     :      5.69s CPU      5.84s WALL (       1 calls)
     electrons    :    130.40s CPU    139.91s WALL (       1 calls)
     forces       :      3.58s CPU      3.68s WALL (       1 calls)

     Called by init_run:
     wfcinit      :      0.41s CPU      0.43s WALL (       1 calls)
     wfcinit:atom :      0.00s CPU      0.01s WALL (       1 calls)
     wfcinit:wfcr :      0.40s CPU      0.40s WALL (       1 calls)
     potinit      :      1.47s CPU      1.48s WALL (       1 calls)

     Called by electrons:
     c_bands      :     29.82s CPU     30.30s WALL (      24 calls)
     sum_band     :     18.96s CPU     20.71s WALL (      24 calls)
     v_of_rho     :      6.03s CPU      6.14s WALL (      25 calls)
     v_h          :     10.02s CPU     11.22s WALL (     996 calls)
     v_xc         :      5.99s CPU      6.11s WALL (      26 calls)
     newd         :     10.48s CPU     12.35s WALL (      25 calls)
     mix_rho      :      0.90s CPU      0.91s WALL (      24 calls)

     Called by c_bands:
     init_us_2    :      0.39s CPU      0.39s WALL (      49 calls)
     cegterg      :     28.00s CPU     28.48s WALL (      24 calls)

     Called by sum_band:
     sum_band:bec :      0.00s CPU      0.00s WALL (      24 calls)
     addusdens    :     13.91s CPU     15.66s WALL (      24 calls)

     Called by *egterg:
     h_psi        :     17.70s CPU     17.72s WALL (     135 calls)
     s_psi        :      1.74s CPU      1.74s WALL (     135 calls)
     g_psi        :      0.21s CPU      0.21s WALL (     110 calls)
     cdiaghg      :      1.28s CPU      1.28s WALL (     134 calls)
     cegterg:over :      2.60s CPU      2.59s WALL (     110 calls)
     cegterg:upda :      2.42s CPU      2.44s WALL (     110 calls)
     cegterg:last :      0.98s CPU      1.00s WALL (      24 calls)

     Called by h_psi:
     h_psi:pot    :     17.51s CPU     17.51s WALL (     135 calls)
     h_psi:calbec :      1.52s CPU      1.53s WALL (     135 calls)
     vloc_psi     :     14.27s CPU     14.26s WALL (     135 calls)
     add_vuspsi   :      1.72s CPU      1.72s WALL (     135 calls)

     General routines
     calbec       :      2.21s CPU      2.23s WALL (     163 calls)
     fft          :     17.52s CPU     19.72s WALL (    2672 calls)
     ffts         :      0.12s CPU      0.09s WALL (      49 calls)
     fftw         :     12.95s CPU     13.57s WALL (   10734 calls)
     interpolate  :      0.55s CPU      0.54s WALL (      49 calls)
     davcio       :      0.00s CPU      0.01s WALL (       1 calls)
 
     Parallel routines
     fft_scatter  :      3.80s CPU      4.99s WALL (   13455 calls)
 
     Environ routines
     calc_eelect  :      0.02s CPU      0.02s WALL (      48 calls)
     calc_velect  :     57.96s CPU     63.31s WALL (      42 calls)
     dielectric   :      0.48s CPU      0.48s WALL (      27 calls)
     calc_felect  :      0.09s CPU      0.09s WALL (       1 calls)
 
     PWSCF        :  2m19.80s CPU     2m29.58s WALL

 
   This run was terminated on:  15:38:26  29Jan2018            

=------------------------------------------------------------------------------=
   JOB DONE.
=------------------------------------------------------------------------------=
