
     Program PWSCF v.6.7MaX starts on 26Sep2021 at 10: 9:34 

     This program is part of the open-source Quantum ESPRESSO suite
     for quantum simulation of materials; please cite
         "P. Giannozzi et al., J. Phys.:Condens. Matter 21 395502 (2009);
         "P. Giannozzi et al., J. Phys.:Condens. Matter 29 465901 (2017);
          URL http://www.quantum-espresso.org", 
     in publications or presentations arising from this work. More details at
     http://www.quantum-espresso.org/quote

     Parallel version (MPI), running on     1 processors

     MPI processes distributed on     1 nodes
     Waiting for input...
     Reading input from standard input

     Current dimensions of program PWSCF are:
     Max number of different atomic species (ntypx) = 10
     Max number of k-points (npk) =  40000
     Max angular momentum in pseudopotentials (lmaxx) =  3

     Reading input from environ.in

     ================================================================================

     Reading ENVIRON namelist

     Reading BOUNDARY namelist

     Checking boundary derivatives
     derivatives               = chain          ! SCCS default

     Reading ELECTROSTATIC namelist

     Setting up electrostatic problem
     problem                   = generalized    
     solver                    = cg             

     Checking PBC correction

     Reading EXTERNAL_CHARGES card

     ================================================================================
 
     file C.pbe-rrkjus.UPF: wavefunction(s)  2S 2P renormalized
     file O.pbe-rrkjus.UPF: wavefunction(s)  2S renormalized

     Subspace diagonalization in iterative solution of the eigenvalue problem:
     a serial algorithm will be used

 
     G-vector sticks info
     --------------------
     sticks:   dense  smooth     PW     G-vecs:    dense   smooth      PW
     Sum        2205    1099    269               330909   116965   14571
 


     bravais-lattice index     =            8
     lattice parameter (alat)  =      10.6881  a.u.
     unit-cell volume          =    4181.1215 (a.u.)^3
     number of atoms/cell      =           10
     number of atomic types    =            3
     number of electrons       =        89.00
     number of Kohn-Sham states=           80
     kinetic-energy cutoff     =      35.0000  Ry
     charge density cutoff     =     280.0000  Ry
     scf convergence threshold =      5.0E-09
     mixing beta               =       0.2000
     number of iterations used =            8  plain     mixing
     Exchange-correlation= SLA  PW   PBE  PBE
                           (   1   4   3   4   0   0   0)
 

     Environ Module
     ==============

     Please cite
         O. Andreussi, I. Dabo and N. Marzari, J. Chem. Phys. 136, 064102 (2012)         
     in publications or presentations arising from this work.

     compensation onset threshold      =               0.1000E+01
     static permittivity               =                    80.00
     epsilon calculation mode          =                     full

     Electrostatic Setup
     -------------------
     electrostatic problem to solve    = generalized             
     numerical solver adopted          = cg                      
     type of auxiliary density adopted = none                    
     type of core tool for poisson     = fft                     
     type of core tool for correction  = 1d-analytic             



     celldm(1)=  10.688100  celldm(2)=   0.866025  celldm(3)=   3.954220
     celldm(4)=   0.000000  celldm(5)=   0.000000  celldm(6)=   0.000000

     crystal axes: (cart. coord. in units of alat)
               a(1) = (   1.000000   0.000000   0.000000 )  
               a(2) = (   0.000000   0.866025   0.000000 )  
               a(3) = (   0.000000   0.000000   3.954220 )  

     reciprocal axes: (cart. coord. in units 2 pi/alat)
               b(1) = (  1.000000  0.000000  0.000000 )  
               b(2) = (  0.000000  1.154701  0.000000 )  
               b(3) = (  0.000000  0.000000  0.252894 )  


     PseudoPot. # 1 for C  read from file:
     /home/simplogic86/Work/QE1/pseudo/C.pbe-rrkjus.UPF
     MD5 check sum: c9ac5a99bc85b198593446162950cd17
     Pseudo is Ultrasoft, Zval =  4.0
     Generated by new atomic code, or converted to UPF format
     Using radial grid of  627 points,  4 beta functions with: 
                l(1) =   0
                l(2) =   0
                l(3) =   1
                l(4) =   1
     Q(r) pseudized with 0 coefficients 


     PseudoPot. # 2 for O  read from file:
     /home/simplogic86/Work/QE1/pseudo/O.pbe-rrkjus.UPF
     MD5 check sum: fadcf19ee70a498d3030e2e79cf929a4
     Pseudo is Ultrasoft, Zval =  6.0
     Generated by new atomic code, or converted to UPF format
     Using radial grid of 1269 points,  4 beta functions with: 
                l(1) =   0
                l(2) =   0
                l(3) =   1
                l(4) =   1
     Q(r) pseudized with 0 coefficients 


     PseudoPot. # 3 for Pt read from file:
     /home/simplogic86/Work/QE1/pseudo/Pt.pbe-nd-rrkjus.UPF
     MD5 check sum: b34016df742983190e94d0e746921a01
     Pseudo is Ultrasoft + core correction, Zval = 10.0
     Generated by new atomic code, or converted to UPF format
     Using radial grid of 1547 points,  3 beta functions with: 
                l(1) =   1
                l(2) =   2
                l(3) =   2
     Q(r) pseudized with 0 coefficients 


     atomic species   valence    mass     pseudopotential
        C              4.00     1.00000     C ( 1.00)
        O              6.00     1.00000     O ( 1.00)
        Pt            10.00     1.00000     Pt( 1.00)

     No symmetry found


                                    s                        frac. trans.

      isym =  1     identity                                     

 cryst.   s( 1) = (     1          0          0      )
                  (     0          1          0      )
                  (     0          0          1      )

 cart.    s( 1) = (  1.0000000  0.0000000  0.0000000 )
                  (  0.0000000  1.0000000  0.0000000 )
                  (  0.0000000  0.0000000  1.0000000 )


     point group C_1 (1)    
     there are  1 classes
     the character table:

       E    
A      1.00

     the symmetry operations in each class and the name of the first element:

     E        1
          identity                                               

   Cartesian axes

     site n.     atom                  positions (alat units)
         1           C   tau(   1) = (   0.4991611   0.4347567   1.2070461  )
         2           O   tau(   2) = (   0.4991542   0.4322212   1.4109013  )
         3           Pt  tau(   3) = (   0.7542339   0.0091745   0.8413229  )
         4           Pt  tau(   4) = (   0.2441023   0.0091745   0.8413226  )
         5           Pt  tau(   5) = (   0.0000034   0.4416918   0.8391348  )
         6           Pt  tau(   6) = (   0.4991682   0.4417635   0.8776299  )
         7           Pt  tau(   7) = (   0.0000038   0.7300598   0.4308181  )
         8           Pt  tau(   8) = (   0.4991683   0.7202168   0.4447460  )
         9           Pt  tau(   9) = (   0.2524172   0.2949237   0.4386572  )
        10           Pt  tau(  10) = (   0.7459196   0.2949237   0.4386575  )

   Crystallographic axes

     site n.     atom                  positions (cryst. coord.)
         1           C   tau(   1) = (  0.4991611  0.5020141  0.3052552  )
         2           O   tau(   2) = (  0.4991542  0.4990863  0.3568090  )
         3           Pt  tau(   3) = (  0.7542339  0.0105938  0.2127658  )
         4           Pt  tau(   4) = (  0.2441023  0.0105938  0.2127658  )
         5           Pt  tau(   5) = (  0.0000034  0.5100220  0.2122125  )
         6           Pt  tau(   6) = (  0.4991682  0.5101048  0.2219477  )
         7           Pt  tau(   7) = (  0.0000038  0.8430008  0.1089515  )
         8           Pt  tau(   8) = (  0.4991683  0.8316351  0.1124738  )
         9           Pt  tau(   9) = (  0.2524172  0.3405487  0.1109339  )
        10           Pt  tau(  10) = (  0.7459196  0.3405488  0.1109340  )

     number of k points=     1  Marzari-Vanderbilt smearing, width (Ry)=  0.0300
                       cart. coord. in units 2pi/alat
        k(    1) = (   0.0000000   0.0000000   0.0000000), wk =   2.0000000

                       cryst. coord.
        k(    1) = (   0.0000000   0.0000000   0.0000000), wk =   2.0000000

     Dense  grid:   330909 G-vectors     FFT dimensions: (  60,  50, 225)

     Smooth grid:   116965 G-vectors     FFT dimensions: (  45,  36, 160)

     Dynamical RAM for                 wfc:      17.85 MB

     Dynamical RAM for     wfc (w. buffer):      17.85 MB

     Dynamical RAM for           str. fact:      15.15 MB

     Dynamical RAM for           local pot:       0.00 MB

     Dynamical RAM for          nlocal pot:      26.77 MB

     Dynamical RAM for                qrad:       1.92 MB

     Dynamical RAM for          rho,v,vnew:      30.60 MB

     Dynamical RAM for               rhoin:      10.20 MB

     Dynamical RAM for            rho*nmix:      80.79 MB

     Dynamical RAM for           G-vectors:      19.83 MB

     Dynamical RAM for          h,s,v(r/c):       1.17 MB

     Dynamical RAM for          <psi|beta>:       0.15 MB

     Dynamical RAM for                 psi:      35.69 MB

     Dynamical RAM for                hpsi:      35.69 MB

     Dynamical RAM for                spsi:      35.69 MB

     Dynamical RAM for      wfcinit/wfcrot:      35.84 MB

     Dynamical RAM for           addusdens:     575.62 MB

     Dynamical RAM for          addusforce:     648.85 MB

     Estimated static dynamical RAM per process >     249.04 MB

     Estimated max dynamical RAM per process >     897.89 MB

     Check: negative core charge=   -0.000038

     Initial potential from superposition of free atoms

     starting charge   89.99875, renormalised to   89.00000

     negative rho (up, down):  7.106E-05 0.000E+00
     Starting wfcs are   56 randomized atomic wfcs +   24 random wfcs

     total cpu time spent up to now is        6.2 secs

     Self-consistent Calculation

     iteration #  1     ecut=    35.00 Ry     beta= 0.20
     Davidson diagonalization with overlap
     ethr =  1.00E-02,  avg # of iterations =  8.0

     negative rho (up, down):  7.304E-05 0.000E+00

     total cpu time spent up to now is       11.8 secs

     total energy              =    -735.17449213 Ry
     estimated scf accuracy    <       2.30979550 Ry
     electrostatic embedding   =       0.03381190 Ry
     correction to one-el term =       0.00000000 Ry

     iteration #  2     ecut=    35.00 Ry     beta= 0.20
     Davidson diagonalization with overlap
     ethr =  2.60E-03,  avg # of iterations =  2.0

     negative rho (up, down):  1.329E-04 0.000E+00

     total cpu time spent up to now is       16.0 secs

     total energy              =    -734.89092139 Ry
     estimated scf accuracy    <      17.11811999 Ry
     electrostatic embedding   =       0.03381190 Ry
     correction to one-el term =       0.00000000 Ry

     iteration #  3     ecut=    35.00 Ry     beta= 0.20
     Davidson diagonalization with overlap
     ethr =  2.60E-03,  avg # of iterations =  2.0

     negative rho (up, down):  1.045E-04 0.000E+00

     add environment contribution to local potential

     total cpu time spent up to now is       23.5 secs

     total energy              =    -735.53306258 Ry
     estimated scf accuracy    <       0.51751221 Ry
     electrostatic embedding   =       0.03381190 Ry
     correction to one-el term =       0.00000000 Ry

     iteration #  4     ecut=    35.00 Ry     beta= 0.20
     Davidson diagonalization with overlap
     ethr =  5.81E-04,  avg # of iterations = 10.0

     negative rho (up, down):  1.055E-04 0.000E+00

     add environment contribution to local potential

     total cpu time spent up to now is       31.4 secs

     total energy              =    -735.32331916 Ry
     estimated scf accuracy    <       0.23835579 Ry
     electrostatic embedding   =       0.26016370 Ry
     correction to one-el term =      15.21578713 Ry

     iteration #  5     ecut=    35.00 Ry     beta= 0.20
     Davidson diagonalization with overlap
     ethr =  2.68E-04,  avg # of iterations =  6.0

     negative rho (up, down):  1.292E-04 0.000E+00

     add environment contribution to local potential

     total cpu time spent up to now is       39.9 secs

     total energy              =    -735.32363790 Ry
     estimated scf accuracy    <       0.07758039 Ry
     electrostatic embedding   =       0.24458047 Ry
     correction to one-el term =      13.51508935 Ry

     iteration #  6     ecut=    35.00 Ry     beta= 0.20
     Davidson diagonalization with overlap
     ethr =  8.72E-05,  avg # of iterations =  8.0

     negative rho (up, down):  1.443E-04 0.000E+00

     add environment contribution to local potential

     total cpu time spent up to now is       48.8 secs

     total energy              =    -735.32679615 Ry
     estimated scf accuracy    <       0.04944466 Ry
     electrostatic embedding   =       0.23148737 Ry
     correction to one-el term =      11.99195302 Ry

     iteration #  7     ecut=    35.00 Ry     beta= 0.20
     Davidson diagonalization with overlap
     c_bands:  1 eigenvalues not converged
     ethr =  5.56E-05,  avg # of iterations = 20.0

     negative rho (up, down):  1.458E-04 0.000E+00

     add environment contribution to local potential

     total cpu time spent up to now is       57.2 secs

     total energy              =    -735.31666802 Ry
     estimated scf accuracy    <       0.36050536 Ry
     electrostatic embedding   =       0.22599399 Ry
     correction to one-el term =      11.11824917 Ry

     iteration #  8     ecut=    35.00 Ry     beta= 0.20
     Davidson diagonalization with overlap
     ethr =  5.56E-05,  avg # of iterations = 10.0

     negative rho (up, down):  1.456E-04 0.000E+00

     add environment contribution to local potential

     total cpu time spent up to now is       65.6 secs

     total energy              =    -735.32123045 Ry
     estimated scf accuracy    <       0.22658329 Ry
     electrostatic embedding   =       0.22376230 Ry
     correction to one-el term =      10.95068012 Ry

     iteration #  9     ecut=    35.00 Ry     beta= 0.20
     Davidson diagonalization with overlap
     ethr =  5.56E-05,  avg # of iterations =  2.0

     negative rho (up, down):  1.473E-04 0.000E+00

     add environment contribution to local potential

     total cpu time spent up to now is       75.0 secs

     total energy              =    -735.32679098 Ry
     estimated scf accuracy    <       0.00527731 Ry
     electrostatic embedding   =       0.22169238 Ry
     correction to one-el term =      10.70951365 Ry

     iteration # 10     ecut=    35.00 Ry     beta= 0.20
     Davidson diagonalization with overlap
     ethr =  5.93E-06,  avg # of iterations =  7.0

     negative rho (up, down):  1.452E-04 0.000E+00

     add environment contribution to local potential

     total cpu time spent up to now is       83.3 secs

     total energy              =    -735.32720640 Ry
     estimated scf accuracy    <       0.00192021 Ry
     electrostatic embedding   =       0.21951261 Ry
     correction to one-el term =      10.44691672 Ry

     iteration # 11     ecut=    35.00 Ry     beta= 0.20
     Davidson diagonalization with overlap
     ethr =  2.16E-06,  avg # of iterations =  5.0

     negative rho (up, down):  1.448E-04 0.000E+00

     add environment contribution to local potential

     total cpu time spent up to now is       91.8 secs

     total energy              =    -735.32720650 Ry
     estimated scf accuracy    <       0.00123147 Ry
     electrostatic embedding   =       0.21870013 Ry
     correction to one-el term =      10.35202397 Ry

     iteration # 12     ecut=    35.00 Ry     beta= 0.20
     Davidson diagonalization with overlap
     ethr =  1.38E-06,  avg # of iterations =  2.0

     negative rho (up, down):  1.449E-04 0.000E+00

     add environment contribution to local potential

     total cpu time spent up to now is      100.5 secs

     total energy              =    -735.32731804 Ry
     estimated scf accuracy    <       0.00038801 Ry
     electrostatic embedding   =       0.21732044 Ry
     correction to one-el term =      10.20457095 Ry

     iteration # 13     ecut=    35.00 Ry     beta= 0.20
     Davidson diagonalization with overlap
     ethr =  4.36E-07,  avg # of iterations =  6.0

     negative rho (up, down):  1.443E-04 0.000E+00

     add environment contribution to local potential

     total cpu time spent up to now is      108.2 secs

     total energy              =    -735.32734605 Ry
     estimated scf accuracy    <       0.00082683 Ry
     electrostatic embedding   =       0.21606918 Ry
     correction to one-el term =      10.07743884 Ry

     iteration # 14     ecut=    35.00 Ry     beta= 0.20
     Davidson diagonalization with overlap
     ethr =  4.36E-07,  avg # of iterations =  1.0

     negative rho (up, down):  1.437E-04 0.000E+00

     add environment contribution to local potential

     total cpu time spent up to now is      118.5 secs

     total energy              =    -735.32737288 Ry
     estimated scf accuracy    <       0.00016699 Ry
     electrostatic embedding   =       0.21539966 Ry
     correction to one-el term =      10.01628488 Ry

     iteration # 15     ecut=    35.00 Ry     beta= 0.20
     Davidson diagonalization with overlap
     ethr =  1.88E-07,  avg # of iterations =  1.0

     negative rho (up, down):  1.430E-04 0.000E+00

     add environment contribution to local potential

     total cpu time spent up to now is      126.3 secs

     total energy              =    -735.32738544 Ry
     estimated scf accuracy    <       0.00000595 Ry
     electrostatic embedding   =       0.21503052 Ry
     correction to one-el term =       9.98368130 Ry

     iteration # 16     ecut=    35.00 Ry     beta= 0.20
     Davidson diagonalization with overlap
     ethr =  6.68E-09,  avg # of iterations =  2.0

     negative rho (up, down):  1.430E-04 0.000E+00

     add environment contribution to local potential

     total cpu time spent up to now is      135.9 secs

     total energy              =    -735.32739138 Ry
     estimated scf accuracy    <       0.00007051 Ry
     electrostatic embedding   =       0.21489780 Ry
     correction to one-el term =       9.97702700 Ry

     iteration # 17     ecut=    35.00 Ry     beta= 0.20
     Davidson diagonalization with overlap
     ethr =  6.68E-09,  avg # of iterations =  1.0

     negative rho (up, down):  1.428E-04 0.000E+00

     add environment contribution to local potential

     total cpu time spent up to now is      145.1 secs

     total energy              =    -735.32739126 Ry
     estimated scf accuracy    <       0.00000241 Ry
     electrostatic embedding   =       0.21485342 Ry
     correction to one-el term =       9.97101509 Ry

     iteration # 18     ecut=    35.00 Ry     beta= 0.20
     Davidson diagonalization with overlap
     ethr =  2.70E-09,  avg # of iterations =  2.0

     negative rho (up, down):  1.428E-04 0.000E+00

     add environment contribution to local potential

     total cpu time spent up to now is      154.0 secs

     total energy              =    -735.32739928 Ry
     estimated scf accuracy    <       0.00001226 Ry
     electrostatic embedding   =       0.21455908 Ry
     correction to one-el term =       9.94909541 Ry

     iteration # 19     ecut=    35.00 Ry     beta= 0.20
     Davidson diagonalization with overlap
     ethr =  2.70E-09,  avg # of iterations =  2.0

     negative rho (up, down):  1.429E-04 0.000E+00

     add environment contribution to local potential

     total cpu time spent up to now is      163.0 secs

     total energy              =    -735.32740101 Ry
     estimated scf accuracy    <       0.00000026 Ry
     electrostatic embedding   =       0.21446735 Ry
     correction to one-el term =       9.94135023 Ry

     iteration # 20     ecut=    35.00 Ry     beta= 0.20
     Davidson diagonalization with overlap
     ethr =  2.92E-10,  avg # of iterations =  2.0

     negative rho (up, down):  1.430E-04 0.000E+00

     add environment contribution to local potential

     total cpu time spent up to now is      171.8 secs

     total energy              =    -735.32740147 Ry
     estimated scf accuracy    <       0.00000021 Ry
     electrostatic embedding   =       0.21440720 Ry
     correction to one-el term =       9.93611370 Ry

     iteration # 21     ecut=    35.00 Ry     beta= 0.20
     Davidson diagonalization with overlap
     ethr =  2.33E-10,  avg # of iterations =  2.0

     negative rho (up, down):  1.431E-04 0.000E+00

     add environment contribution to local potential

     total cpu time spent up to now is      180.5 secs

     total energy              =    -735.32740158 Ry
     estimated scf accuracy    <       0.00000082 Ry
     electrostatic embedding   =       0.21436411 Ry
     correction to one-el term =       9.93238522 Ry

     iteration # 22     ecut=    35.00 Ry     beta= 0.20
     Davidson diagonalization with overlap
     ethr =  2.33E-10,  avg # of iterations =  2.0

     negative rho (up, down):  1.432E-04 0.000E+00

     add environment contribution to local potential

     total cpu time spent up to now is      188.4 secs

     total energy              =    -735.32740160 Ry
     estimated scf accuracy    <       0.00000045 Ry
     electrostatic embedding   =       0.21436396 Ry
     correction to one-el term =       9.93283441 Ry

     iteration # 23     ecut=    35.00 Ry     beta= 0.20
     Davidson diagonalization with overlap
     ethr =  2.33E-10,  avg # of iterations =  2.0

     negative rho (up, down):  1.433E-04 0.000E+00

     add environment contribution to local potential

     total cpu time spent up to now is      197.5 secs

     total energy              =    -735.32740162 Ry
     estimated scf accuracy    <       0.00000001 Ry
     electrostatic embedding   =       0.21435546 Ry
     correction to one-el term =       9.93229803 Ry

     iteration # 24     ecut=    35.00 Ry     beta= 0.20
     Davidson diagonalization with overlap
     ethr =  1.33E-11,  avg # of iterations =  3.0

     negative rho (up, down):  1.438E-04 0.000E+00

     the potential shift due to the Gaussian-smeared nuclei is    -0.4600 ev

     total cpu time spent up to now is      201.1 secs

     End of self-consistent calculation

          k = 0.0000 0.0000 0.0000 ( 14571 PWs)   bands (ev):

   -29.7558 -16.2947 -14.7098 -13.4332 -13.2533 -12.6420 -12.6173 -12.5481
   -12.3672 -11.5041 -11.3831 -11.2570 -11.0422 -11.0179 -10.9400 -10.8058
   -10.1038 -10.0779 -10.0174  -9.8256  -9.8050  -9.7544  -9.7176  -9.6705
    -9.6522  -9.4688  -9.4402  -9.3124  -9.2240  -8.9897  -8.8988  -8.1219
    -8.0180  -7.7315  -7.5123  -7.4506  -7.3815  -7.2369  -7.0506  -6.9652
    -6.7968  -6.7827  -6.5702  -6.5697  -6.5325  -6.3726  -6.2103  -5.0551
    -4.8369  -4.7568  -4.0768  -3.4387  -3.2780  -2.2522  -1.9774  -1.9408
    -1.2718  -0.9453  -0.6400  -0.2577  -0.1558   0.4345   0.8653   1.1105
     1.6459   1.9270   2.1346   2.3479   2.4468   2.7013   3.3081   3.4419
     3.5952   3.6786   4.1039   4.3570   4.4200   4.4601   4.7448   4.8240

     occupation numbers 
     1.0000   1.0000   1.0000   1.0000   1.0000   1.0000   1.0000   1.0000
     1.0000   1.0000   1.0000   1.0000   1.0000   1.0000   1.0000   1.0000
     1.0000   1.0000   1.0000   1.0000   1.0000   1.0000   1.0000   1.0000
     1.0000   1.0000   1.0000   1.0000   1.0000   1.0000   1.0000   1.0000
     1.0000   1.0006   1.0063   1.0107   1.0181   1.0440   1.0812   1.0800
     0.9882   0.9737   0.6471   0.6463   0.5775   0.3050   0.1211   0.0000
     0.0000   0.0000   0.0000   0.0000   0.0000   0.0000   0.0000   0.0000
     0.0000   0.0000   0.0000   0.0000   0.0000   0.0000   0.0000   0.0000
     0.0000   0.0000   0.0000   0.0000   0.0000   0.0000   0.0000   0.0000
     0.0000   0.0000   0.0000   0.0000   0.0000   0.0000   0.0000   0.0000

     the Fermi energy is    -6.4332 ev

!    total energy              =    -735.32740158 Ry
     estimated scf accuracy    <          2.8E-09 Ry
     smearing contrib. (-TS)   =      -0.00075569 Ry
     internal energy E=F+TS    =    -735.32664589 Ry

     The total energy is F=E-TS. E is the sum of the following terms:
     one-electron contribution =   -3942.97062229 Ry
     hartree contribution      =    2002.99510272 Ry
     xc contribution           =    -378.70255234 Ry
     ewald contribution        =    1573.20467954 Ry
     electrostatic embedding   =       0.21435610 Ry
     correction to one-el term =       9.93239039 Ry

     WARNING: you are using the parabolic pbc correction;
              the potential shift above must be added to 
              band and Fermi energies.

     convergence has been achieved in  24 iterations

     negative rho (up, down):  1.438E-04 0.000E+00
     The global environment contribution to forces
     atom    1 type  1   force =     0.00006352    0.00582187   -0.18281318
     atom    2 type  2   force =     0.00001600    0.00423546   -0.59152777
     atom    3 type  3   force =    -0.00080644   -0.00378484    0.05288693
     atom    4 type  3   force =     0.00082058   -0.00379919    0.05296346
     atom    5 type  3   force =    -0.00015394    0.00210571    0.03068312
     atom    6 type  3   force =     0.00008072    0.00502979   -0.01169618
     atom    7 type  3   force =    -0.00047743    0.00752710    0.04437357
     atom    8 type  3   force =     0.00039680    0.00885099    0.04609823
     atom    9 type  3   force =    -0.00903873   -0.00720944    0.02858092
     atom   10 type  3   force =     0.00907105   -0.00725198    0.02795890
 

     Forces acting on atoms (cartesian axes, Ry/au):

     atom    1 type  1   force =    -0.00005279   -0.00446387   -0.04134238
     atom    2 type  2   force =     0.00000344    0.00142338   -0.32636519
     atom    3 type  3   force =     0.00038924    0.01401507   -0.04486380
     atom    4 type  3   force =     0.00066397    0.01430691   -0.04414314
     atom    5 type  3   force =    -0.00179150    0.01276950   -0.08006818
     atom    6 type  3   force =     0.00079170    0.00782630   -0.05869793
     atom    7 type  3   force =    -0.00151493   -0.01436503    0.14849895
     atom    8 type  3   force =     0.00045452   -0.02024053    0.15650845
     atom    9 type  3   force =     0.01746386   -0.00581571    0.14500511
     atom   10 type  3   force =    -0.01640750   -0.00545602    0.14546812
     The non-local contrib.  to forces
     atom    1 type  1   force =    -0.00008206   -0.00750501    0.58226222
     atom    2 type  2   force =     0.00018453    0.03855307   -2.92669442
     atom    3 type  3   force =    -0.02654002   -0.00122568   -0.10394991
     atom    4 type  3   force =     0.02664414   -0.00105716   -0.10440965
     atom    5 type  3   force =     0.00100209    0.00437255   -0.15557088
     atom    6 type  3   force =    -0.00081334   -0.01670055    0.50041813
     atom    7 type  3   force =     0.00061595    0.02491216    0.06494643
     atom    8 type  3   force =    -0.00091788   -0.01814934    0.09231628
     atom    9 type  3   force =     0.01904154   -0.00383743    0.05462661
     atom   10 type  3   force =    -0.01894751   -0.00351072    0.05342274
     The ionic contribution  to forces
     atom    1 type  1   force =     0.00636806    0.05296760   19.96835427
     atom    2 type  2   force =     0.00226724   -0.13041391   48.33963012
     atom    3 type  3   force =     0.50324609   -0.09020628   30.03736972
     atom    4 type  3   force =    -0.49292694   -0.08303178   30.06216876
     atom    5 type  3   force =    -0.07802400    0.12039865   29.68099553
     atom    6 type  3   force =     0.05586768    0.10046245   29.12582959
     atom    7 type  3   force =    -0.06942211   -0.08855591  -48.10896481
     atom    8 type  3   force =     0.05843526    0.13450123  -45.70999247
     atom    9 type  3   force =     0.08482129   -0.01166389  -46.71013044
     atom   10 type  3   force =    -0.07063256   -0.00445817  -46.68526027
     The local contribution  to forces
     atom    1 type  1   force =    -0.00641932   -0.05574245  -20.40877812
     atom    2 type  2   force =    -0.00248180    0.08905229  -45.14742678
     atom    3 type  3   force =    -0.47820001    0.11277739  -30.02033107
     atom    4 type  3   force =     0.46895426    0.10565034  -30.04420521
     atom    5 type  3   force =     0.07491636   -0.11039757  -29.63164819
     atom    6 type  3   force =    -0.05409645   -0.07725643  -29.74165100
     atom    7 type  3   force =     0.06725008    0.03418738   48.13487527
     atom    8 type  3   force =    -0.05711104   -0.14107469   45.71221344
     atom    9 type  3   force =    -0.08471373    0.01266489   46.75531249
     atom   10 type  3   force =     0.07161437    0.00550617   46.73256339
     The core correction contribution to forces
     atom    1 type  1   force =     0.00000000    0.00000000    0.00000000
     atom    2 type  2   force =     0.00000000    0.00000000    0.00000000
     atom    3 type  3   force =     0.00270374   -0.00353980   -0.01048274
     atom    4 type  3   force =    -0.00287906   -0.00345004   -0.01030420
     atom    5 type  3   force =     0.00044360   -0.00370474   -0.00414777
     atom    6 type  3   force =    -0.00025885   -0.00370186    0.06877417
     atom    7 type  3   force =     0.00049678    0.00755167    0.01364410
     atom    8 type  3   force =    -0.00036209   -0.00437481    0.01619611
     atom    9 type  3   force =     0.00734598    0.00425178    0.01700255
     atom   10 type  3   force =    -0.00754082    0.00427976    0.01717650
     The Hubbard contrib.    to forces
     atom    1 type  1   force =     0.00000000    0.00000000    0.00000000
     atom    2 type  2   force =     0.00000000    0.00000000    0.00000000
     atom    3 type  3   force =     0.00000000    0.00000000    0.00000000
     atom    4 type  3   force =     0.00000000    0.00000000    0.00000000
     atom    5 type  3   force =     0.00000000    0.00000000    0.00000000
     atom    6 type  3   force =     0.00000000    0.00000000    0.00000000
     atom    7 type  3   force =     0.00000000    0.00000000    0.00000000
     atom    8 type  3   force =     0.00000000    0.00000000    0.00000000
     atom    9 type  3   force =     0.00000000    0.00000000    0.00000000
     atom   10 type  3   force =     0.00000000    0.00000000    0.00000000
     The SCF correction term to forces
     atom    1 type  1   force =    -0.00000095   -0.00000035    0.00000029
     atom    2 type  2   force =    -0.00000049    0.00000202    0.00002152
     atom    3 type  3   force =    -0.00003208   -0.00000020    0.00001114
     atom    4 type  3   force =     0.00003302    0.00000028    0.00001156
     atom    5 type  3   force =     0.00000642    0.00000043   -0.00001213
     atom    6 type  3   force =    -0.00000604   -0.00000156   -0.00000478
     atom    7 type  3   force =     0.00000384    0.00001810   -0.00000774
     atom    8 type  3   force =    -0.00000450    0.00001163    0.00004471
     atom    9 type  3   force =    -0.00001045   -0.00001609   -0.00001916
     atom   10 type  3   force =     0.00001000   -0.00001553   -0.00002528

     Total force =     0.461176     Total SCF correction =     0.000086

     Writing output data file /home/simplogic86/Work/QE1/tempdir/PtCO_helmholtz_water.save/
 
     init_run     :      5.83s CPU      6.07s WALL (       1 calls)
     electrons    :    186.17s CPU    194.94s WALL (       1 calls)
     forces       :      4.20s CPU      4.40s WALL (       1 calls)

     Called by init_run:
     wfcinit      :      0.53s CPU      0.54s WALL (       1 calls)
     wfcinit:atom :      0.00s CPU      0.00s WALL (       1 calls)
     wfcinit:wfcr :      0.51s CPU      0.52s WALL (       1 calls)
     potinit      :      1.18s CPU      1.21s WALL (       1 calls)
     hinit0       :      3.41s CPU      3.42s WALL (       1 calls)

     Called by electrons:
     c_bands      :     40.91s CPU     41.90s WALL (      24 calls)
     sum_band     :     25.57s CPU     28.77s WALL (      24 calls)
     v_of_rho     :      7.23s CPU      8.23s WALL (      25 calls)
     v_h          :      0.30s CPU      0.30s WALL (      25 calls)
     v_xc         :      7.29s CPU      8.32s WALL (      26 calls)
     newd         :     12.24s CPU     15.68s WALL (      25 calls)
     mix_rho      :      1.10s CPU      1.13s WALL (      24 calls)

     Called by c_bands:
     init_us_2    :      0.30s CPU      0.31s WALL (      49 calls)
     cegterg      :     39.31s CPU     40.30s WALL (      24 calls)

     Called by sum_band:
     sum_band:wei :      0.00s CPU      0.00s WALL (      24 calls)
     sum_band:loo :      6.85s CPU      6.88s WALL (      24 calls)
     sum_band:buf :      0.00s CPU      0.00s WALL (      24 calls)
     sum_band:ini :      0.15s CPU      0.16s WALL (      24 calls)
     sum_band:cal :      0.75s CPU      0.75s WALL (      24 calls)
     sum_band:bec :      0.00s CPU      0.00s WALL (      24 calls)
     addusdens    :     18.35s CPU     21.48s WALL (      24 calls)
     addusd:skk   :      0.29s CPU      0.50s WALL (      72 calls)
     addusd:dgemm :      2.26s CPU      4.95s WALL (      72 calls)
     addusd:qvan2 :     14.58s CPU     14.63s WALL (      72 calls)

     Called by *egterg:
     cdiaghg      :      0.71s CPU      0.71s WALL (     132 calls)
     cegterg:over :      2.58s CPU      2.58s WALL (     108 calls)
     cegterg:upda :      1.62s CPU      1.69s WALL (     108 calls)
     cegterg:last :      3.46s CPU      3.47s WALL (      48 calls)
     h_psi        :     28.13s CPU     28.92s WALL (     133 calls)
     s_psi        :      1.76s CPU      1.80s WALL (     133 calls)
     g_psi        :      0.10s CPU      0.10s WALL (     108 calls)

     Called by h_psi:
     h_psi:calbec :      1.81s CPU      1.81s WALL (     133 calls)
     vloc_psi     :     24.35s CPU     25.08s WALL (     133 calls)
     add_vuspsi   :      1.81s CPU      1.81s WALL (     133 calls)

     General routines
     calbec       :      2.71s CPU      2.71s WALL (     161 calls)
     fft          :      2.36s CPU      2.47s WALL (     334 calls)
     ffts         :      0.12s CPU      0.12s WALL (      49 calls)
     fftw         :     26.34s CPU     27.07s WALL (   10828 calls)
     interpolate  :      0.27s CPU      0.27s WALL (      25 calls)
 
     Parallel routines
 
     Environ routines
 
     PWSCF        :   3m16.29s CPU   3m25.53s WALL

 
   This run was terminated on:  10:12:59  26Sep2021            

=------------------------------------------------------------------------------=
   JOB DONE.
=------------------------------------------------------------------------------=
